/*--------------------------------*- C++ -*----------------------------------*\
  =========                 |
  \\      /  F ield         | OpenFOAM: The Open Source CFD Toolbox
   \\    /   O peration     | Website:  https://openfoam.org
    \\  /    A nd           | Version:  13
     \\/     M anipulation  |
\*---------------------------------------------------------------------------*/
FoamFile
{
    format      ascii;
    class       volScalarField;
    location    "24";
    object      p;
}
// * * * * * * * * * * * * * * * * * * * * * * * * * * * * * * * * * * * * * //

dimensions      [0 2 -2 0 0 0 0];

internalField   nonuniform List<scalar> 
6440
(
0.00015826
0.000158202
0.000158032
0.000157773
0.000157452
0.000157123
0.000156845
0.00015668
0.000156695
0.000156953
0.000157506
0.000158395
0.000159644
0.000161243
0.000163166
0.00016536
0.000167751
0.000170253
0.000172795
0.000175322
0.000177812
0.000180274
0.000182666
0.000185038
0.000187124
0.000158686
0.00015859
0.000158355
0.000157992
0.000157522
0.00015699
0.000156447
0.000155951
0.000155567
0.000155365
0.000155408
0.00015576
0.000156479
0.00015762
0.0001592
0.000161224
0.000163683
0.000166551
0.000169776
0.000173306
0.000177098
0.000181115
0.000185195
0.000189201
0.000192802
0.000159445
0.000159281
0.000158938
0.000158417
0.000157733
0.000156928
0.000156049
0.000155158
0.000154324
0.000153625
0.000153143
0.000152966
0.000153183
0.000153881
0.000155147
0.000157026
0.000159552
0.000162731
0.000166528
0.000170885
0.000175728
0.00018097
0.000186354
0.000191508
0.000195901
0.000160668
0.000160433
0.000159974
0.000159285
0.000158382
0.000157303
0.000156103
0.000154844
0.000153605
0.000152471
0.00015154
0.000150919
0.000150719
0.000151052
0.000152028
0.000153763
0.000156313
0.000159689
0.000163867
0.000168781
0.000174335
0.000180419
0.000186729
0.000192739
0.000197764
0.00016249
0.000162187
0.000161616
0.000160763
0.000159648
0.000158314
0.000156811
0.000155211
0.000153595
0.000152062
0.000150718
0.000149682
0.000149084
0.000149056
0.000149728
0.000151228
0.000153691
0.000157112
0.000161479
0.000166733
0.000172765
0.000179446
0.000186483
0.000193238
0.000198878
0.000164974
0.000164608
0.000163929
0.000162921
0.000161603
0.000160025
0.000158239
0.000156311
0.000154335
0.000152417
0.000150669
0.000149219
0.000148207
0.000147779
0.000148087
0.000149271
0.00015147
0.000154786
0.00015917
0.000164585
0.000170948
0.00017811
0.000185771
0.000193232
0.000199474
0.000168135
0.000167709
0.000166929
0.000165772
0.000164261
0.000162447
0.000160389
0.000158155
0.000155827
0.000153531
0.00015138
0.000149506
0.000148053
0.000147179
0.000147048
0.000147818
0.000149642
0.000152674
0.000156937
0.000162379
0.000168961
0.000176541
0.00018479
0.000192936
0.000199781
0.000171959
0.000171477
0.000170604
0.000169307
0.000167614
0.000165576
0.000163255
0.000160724
0.000158059
0.000155392
0.000152838
0.000150529
0.000148613
0.000147251
0.000146615
0.000146886
0.000148235
0.000150832
0.00015484
0.000160197
0.000166893
0.000174826
0.00018365
0.000192479
0.000199942
0.000176415
0.000175885
0.000174928
0.000173505
0.000171645
0.000169399
0.000166828
0.00016401
0.00016103
0.000157992
0.000155034
0.000152285
0.000149891
0.000148012
0.000146825
0.000146525
0.000147309
0.000149376
0.000152942
0.000158097
0.000164805
0.000173024
0.000182405
0.000191923
0.00020004
0.00018146
0.000180892
0.000179865
0.000178335
0.000176328
0.000173896
0.000171099
0.000168013
0.000164729
0.000161329
0.000157973
0.000154785
0.000151906
0.000149494
0.000147726
0.000146803
0.000146944
0.000148381
0.000151364
0.000156165
0.000162756
0.000171169
0.000181066
0.000191306
0.000200097
0.00018704
0.000186445
0.000185367
0.000183754
0.000181631
0.000179045
0.000176052
0.000172725
0.000169148
0.000165415
0.000161676
0.000158056
0.000154693
0.000151743
0.000149379
0.000147799
0.000147238
0.000147958
0.000150251
0.000154493
0.000160817
0.000169276
0.00017961
0.000190579
0.000200047
0.000193088
0.000192482
0.000191375
0.00018971
0.000187511
0.000184816
0.000181676
0.000178154
0.000174329
0.000170295
0.000166197
0.000162157
0.000158316
0.000154826
0.000151856
0.000149602
0.000148296
0.000148223
0.000149715
0.000153189
0.000159029
0.00016733
0.000177968
0.000189619
0.000199767
0.000199527
0.000198926
0.000197817
0.000196141
0.000193915
0.000191171
0.00018795
0.000184303
0.000180299
0.000176024
0.000171612
0.000167183
0.000162876
0.000158844
0.000155258
0.000152311
0.000150227
0.000149289
0.000149859
0.0001524
0.000157477
0.000165375
0.000176065
0.000188264
0.000199101
0.00020627
0.00020569
0.000204611
0.000202967
0.000200774
0.000198053
0.000194835
0.00019116
0.000187078
0.000182659
0.000178018
0.000173262
0.000168523
0.000163958
0.000159748
0.00015608
0.000153171
0.000151295
0.00015082
0.000152258
0.000156242
0.000163352
0.00017382
0.000186339
0.000197814
0.000213217
0.000212677
0.000211658
0.000210096
0.000208
0.000205385
0.000202271
0.000198684
0.000194662
0.00019025
0.000185517
0.000180551
0.000175467
0.000170423
0.000165619
0.000161188
0.000157367
0.000154438
0.000152767
0.000152858
0.000155405
0.00016126
0.000171023
0.000183605
0.000195532
0.000220262
0.000219779
0.000218851
0.00021742
0.000215489
0.000213067
0.000210166
0.000206801
0.000203002
0.000198812
0.000194185
0.000189218
0.000183999
0.000178628
0.000173244
0.000168023
0.000163196
0.000159056
0.000155963
0.000154408
0.000155127
0.000159153
0.000167485
0.000179498
0.000191591
0.000227294
0.000226882
0.000226074
0.000224823
0.000223126
0.000220981
0.000218405
0.000215399
0.000212015
0.000208265
0.000204041
0.000199356
0.000194257
0.000188802
0.000183071
0.000177189
0.000171356
0.000165886
0.000161112
0.000157508
0.000155823
0.000157197
0.000162977
0.000173214
0.000184759
0.000234185
0.000233857
0.0002332
0.000232167
0.000230751
0.000228987
0.00022686
0.000224383
0.000221609
0.000218441
0.000214831
0.00021075
0.000206172
0.000201058
0.000195444
0.000189353
0.000182878
0.00017615
0.000169427
0.000163366
0.000158471
0.000155947
0.000157422
0.000163638
0.000172922
0.000240814
0.000240579
0.000240092
0.000239323
0.000238269
0.000236936
0.000235335
0.000233507
0.000231405
0.000228967
0.000226168
0.000222942
0.000219238
0.000214971
0.000210033
0.000204355
0.000197921
0.000190658
0.000182584
0.000173836
0.000165082
0.000157091
0.00015163
0.000149869
0.000152059
0.000247091
0.000246953
0.000246646
0.000246131
0.000245415
0.000244505
0.000243464
0.000242237
0.000240782
0.000239086
0.000237107
0.000234806
0.000232085
0.000228835
0.000224906
0.00022016
0.000214463
0.000207572
0.000199255
0.000189267
0.000177293
0.00016306
0.000147411
0.00013003
0.000110913
0.000252979
0.000252902
0.000252698
0.000252333
0.000251814
0.000251165
0.000250341
0.000249354
0.000248199
0.000246848
0.000245262
0.00024339
0.000241159
0.000238482
0.000235248
0.000231284
0.000226264
0.000219948
0.000211961
0.000201868
0.000188915
0.000171869
0.000148533
0.000112211
4.38414e-05
0.00025863
0.000258566
0.000258378
0.000258031
0.00025753
0.000256876
0.00025606
0.000255079
0.000253922
0.000252563
0.000250966
0.000249078
0.000246831
0.000244132
0.000240862
0.000236857
0.000231887
0.0002257
0.000217917
0.000207895
0.000194829
0.000177547
0.000153636
0.000118921
6.81843e-05
0.000264056
0.000263992
0.000263801
0.000263447
0.000262929
0.000262247
0.000261399
0.000260378
0.000259169
0.00025775
0.000256084
0.000254122
0.000251796
0.000249016
0.000245666
0.000241594
0.0002366
0.000230439
0.000222772
0.000213131
0.000200873
0.000185105
0.000164557
0.000137912
0.000105739
0.000269261
0.000269196
0.000269003
0.000268642
0.000268114
0.000267417
0.00026655
0.000265504
0.000264268
0.000262821
0.000261128
0.000259146
0.000256811
0.000254044
0.000250739
0.000246765
0.000241957
0.000236114
0.00022898
0.000220239
0.000209506
0.00019634
0.000180366
0.000161757
0.000142377
0.000274251
0.000274186
0.000273995
0.000273637
0.000273111
0.000272418
0.000271555
0.000270518
0.000269294
0.000267866
0.000266207
0.000264278
0.000262025
0.000259381
0.000256259
0.000252557
0.00024815
0.000242896
0.000236634
0.000229191
0.00022041
0.000210208
0.000198718
0.000186627
0.000175632
0.000279029
0.000278967
0.000278783
0.000278436
0.000277926
0.000277253
0.000276418
0.000275416
0.00027424
0.000272876
0.000271303
0.000269489
0.000267393
0.000264962
0.000262132
0.000258829
0.000254973
0.00025048
0.000245274
0.000239301
0.000232566
0.000225196
0.00021754
0.000210344
0.000204893
0.0002836
0.000283543
0.00028337
0.000283043
0.00028256
0.000281924
0.000281136
0.000280195
0.000279096
0.000277832
0.000276387
0.000274739
0.000272858
0.000270708
0.000268246
0.000265427
0.00026221
0.000258562
0.000254472
0.000249972
0.000245165
0.000240273
0.000235704
0.000232108
0.000230414
0.000287967
0.000287918
0.000287761
0.000287459
0.000287014
0.000286428
0.000285704
0.000284844
0.000283849
0.000282713
0.00028143
0.000279986
0.000278362
0.000276538
0.000274491
0.000272201
0.000269659
0.00026687
0.000263872
0.000260746
0.000257645
0.000254821
0.000252658
0.00025169
0.000252583
0.000292133
0.000292092
0.000291956
0.000291686
0.000291287
0.000290761
0.000290116
0.000289354
0.000288481
0.000287496
0.000286399
0.000285184
0.000283844
0.000282371
0.00028076
0.000279012
0.000277141
0.00027518
0.000273194
0.000271293
0.000269644
0.000268494
0.000268177
0.000269116
0.000271798
0.000296098
0.000296068
0.000295955
0.000295722
0.000295375
0.00029492
0.000294363
0.000293712
0.000292974
0.000292155
0.000291258
0.000290288
0.000289244
0.000288132
0.000286959
0.00028574
0.000284507
0.000283311
0.000282232
0.000281388
0.000280945
0.000281123
0.000282204
0.00028452
0.000288428
0.000299862
0.000299845
0.000299756
0.000299565
0.000299276
0.000298897
0.000298436
0.000297904
0.00029731
0.000296664
0.000295977
0.000295255
0.00029451
0.000293753
0.000293002
0.000292284
0.00029164
0.000291131
0.000290842
0.000290889
0.000291426
0.000292644
0.000294772
0.00029807
0.000302805
0.000303426
0.000303421
0.00030336
0.000303213
0.000302985
0.000302685
0.000302325
0.000301916
0.00030147
0.000301001
0.000300522
0.000300047
0.000299592
0.000299175
0.000298821
0.000298564
0.000298449
0.000298542
0.000298926
0.000299711
0.000301032
0.000303051
0.000305955
0.000309942
0.000315216
0.000306788
0.000306797
0.000306764
0.000306661
0.000306496
0.000306278
0.00030602
0.000305735
0.000305437
0.000305143
0.000304868
0.000304631
0.000304452
0.000304352
0.000304362
0.000304519
0.000304871
0.000305481
0.000306429
0.000307813
0.000309752
0.000312379
0.000315845
0.000320304
0.000325907
0.000309948
0.00030997
0.000309966
0.000309908
0.000309806
0.00030967
0.000309513
0.00030935
0.000309197
0.000309071
0.000308992
0.00030898
0.000309056
0.000309247
0.000309585
0.000310106
0.000310861
0.000311908
0.00031332
0.000315184
0.0003176
0.000320679
0.000324541
0.000329306
0.000335088
0.000312906
0.000312941
0.000312964
0.000312952
0.000312912
0.000312856
0.000312797
0.000312752
0.000312737
0.000312771
0.000312875
0.00031307
0.000313381
0.000313833
0.000314459
0.000315298
0.000316394
0.000317803
0.000319591
0.000321831
0.000324609
0.000328015
0.000332144
0.00033709
0.000342938
0.000315661
0.000315709
0.000315759
0.00031579
0.000315809
0.00031583
0.000315866
0.000315933
0.000316048
0.000316231
0.000316504
0.000316888
0.000317408
0.000318091
0.000318968
0.000320076
0.000321458
0.000323162
0.000325247
0.000327776
0.00033082
0.000334452
0.000338748
0.00034378
0.000349611
0.000318213
0.000318274
0.00031835
0.000318421
0.000318498
0.000318591
0.000318716
0.000318887
0.000319123
0.000319443
0.000319869
0.000320422
0.000321127
0.00032201
0.000323102
0.000324435
0.00032605
0.000327991
0.000330306
0.000333049
0.000336281
0.000340058
0.000344442
0.000349487
0.000355241
0.000320565
0.000320637
0.000320737
0.000320847
0.000320977
0.000321138
0.000321344
0.000321612
0.000321958
0.000322402
0.000322964
0.000323666
0.000324532
0.000325586
0.000326857
0.000328377
0.000330179
0.000332302
0.00033479
0.000337687
0.000341041
0.0003449
0.00034931
0.000354314
0.000359946
0.000322717
0.000322799
0.000322922
0.000323067
0.000323246
0.00032347
0.000323751
0.000324106
0.000324551
0.000325105
0.000325787
0.000326619
0.000327622
0.00032882
0.000330239
0.000331908
0.000333856
0.000336117
0.000338729
0.000341727
0.000345152
0.000349041
0.00035343
0.000358351
0.000363829
0.000324672
0.000324764
0.000324906
0.000325084
0.000325308
0.000325588
0.000325937
0.00032637
0.000326903
0.000327554
0.00032834
0.000329282
0.000330401
0.000331717
0.000333255
0.00033504
0.000337098
0.000339459
0.000342152
0.00034521
0.000348662
0.00035254
0.000356871
0.000361679
0.00036698
0.000326433
0.000326534
0.000326694
0.000326902
0.000327165
0.000327496
0.000327905
0.000328407
0.000329017
0.000329751
0.000330626
0.000331661
0.000332874
0.000334286
0.000335917
0.000337789
0.000339926
0.000342352
0.000345093
0.000348174
0.000351621
0.000355456
0.000359701
0.000364372
0.000369481
0.000328005
0.000328113
0.000328289
0.000328522
0.000328822
0.000329197
0.000329659
0.000330221
0.000330897
0.000331702
0.000332651
0.000333762
0.000335052
0.000336537
0.000338238
0.000340172
0.000342361
0.000344825
0.000347585
0.000350661
0.000354074
0.000357841
0.000361978
0.000366497
0.000371404
0.000329392
0.000329506
0.000329696
0.000329952
0.000330282
0.000330696
0.000331204
0.000331817
0.000332549
0.000333413
0.000334424
0.000335595
0.000336944
0.000338485
0.000340234
0.00034221
0.000344427
0.000346905
0.00034966
0.000352708
0.000356065
0.000359745
0.000363758
0.000368113
0.000372813
0.000330599
0.000330718
0.00033092
0.000331195
0.000331552
0.000331999
0.000332546
0.000333203
0.000333981
0.000334893
0.000335952
0.000337171
0.000338563
0.000340143
0.000341924
0.000343921
0.000346148
0.00034862
0.00035135
0.000354351
0.000357636
0.000361214
0.000365092
0.000369276
0.000373766
0.000331633
0.000331756
0.000331967
0.000332258
0.000332638
0.000333113
0.000333692
0.000334384
0.0003352
0.000336151
0.000337247
0.0003385
0.000339923
0.000341527
0.000343324
0.000345327
0.000347547
0.000349997
0.000352686
0.000355626
0.000358825
0.00036229
0.000366026
0.000370035
0.000374315
0.000332499
0.000332625
0.000332844
0.000333148
0.000333546
0.000334044
0.00033465
0.000335371
0.000336217
0.000337196
0.000338319
0.000339597
0.000341038
0.000342653
0.000344454
0.000346449
0.000348648
0.000351062
0.000353698
0.000356565
0.000359668
0.000363013
0.000366602
0.000370434
0.000374507
0.000333205
0.000333333
0.000333557
0.000333873
0.000334286
0.000334802
0.000335428
0.000336172
0.000337039
0.00033804
0.000339181
0.000340472
0.000341922
0.000343538
0.00034533
0.000347306
0.000349474
0.000351841
0.000354415
0.000357199
0.0003602
0.000363419
0.000366858
0.000370514
0.000374383
0.000333757
0.000333887
0.000334115
0.000334439
0.000334863
0.000335394
0.000336036
0.000336795
0.000337679
0.000338693
0.000339845
0.000341141
0.00034259
0.000344198
0.000345972
0.00034792
0.000350047
0.000352359
0.000354862
0.000357558
0.000360451
0.000363542
0.000366829
0.000370311
0.000373981
0.000334164
0.000334294
0.000334525
0.000334855
0.000335288
0.000335828
0.000336481
0.000337252
0.000338145
0.000339167
0.000340322
0.000341616
0.000343057
0.000344648
0.000346397
0.000348309
0.000350388
0.000352639
0.000355064
0.000357668
0.00036045
0.000363411
0.000366548
0.000369859
0.000373336
0.000334432
0.000334562
0.000334795
0.000335128
0.000335567
0.000336114
0.000336774
0.000337551
0.000338449
0.000339472
0.000340624
0.000341911
0.000343336
0.000344906
0.000346623
0.000348492
0.000350517
0.000352701
0.000355047
0.000357554
0.000360224
0.000363055
0.000366044
0.000369187
0.000372478
0.00033457
0.000334699
0.000334932
0.000335267
0.000335709
0.00033626
0.000336924
0.000337704
0.000338601
0.000339621
0.000340765
0.000342038
0.000343444
0.000344985
0.000346665
0.000348487
0.000350455
0.000352568
0.00035483
0.00035724
0.000359797
0.000362499
0.000365343
0.000368324
0.000371435
0.000334585
0.000334713
0.000334945
0.000335281
0.000335724
0.000336276
0.00033694
0.000337718
0.000338612
0.000339624
0.000340756
0.000342011
0.000343392
0.000344901
0.00034654
0.000348312
0.000350218
0.000352259
0.000354435
0.000356747
0.000359192
0.000361767
0.000364469
0.000367293
0.000370231
0.000334485
0.000334611
0.000334842
0.000335177
0.000335619
0.00033617
0.000336831
0.000337605
0.000338492
0.000339492
0.000340609
0.000341843
0.000343195
0.000344668
0.000346263
0.000347981
0.000349824
0.000351791
0.000353882
0.000356095
0.000358429
0.000360881
0.000363445
0.000366117
0.00036889
0.000334279
0.000334403
0.000334631
0.000334963
0.000335402
0.00033595
0.000336607
0.000337374
0.00033825
0.000339237
0.000340335
0.000341544
0.000342865
0.0003443
0.000345848
0.000347511
0.000349289
0.000351181
0.000353186
0.000355303
0.000357528
0.000359859
0.000362291
0.000364817
0.000367431
0.000333973
0.000334094
0.000334319
0.000334648
0.000335084
0.000335626
0.000336277
0.000337034
0.000337898
0.000338868
0.000339944
0.000341126
0.000342415
0.000343809
0.000345309
0.000346916
0.000348628
0.000350445
0.000352366
0.000354387
0.000356507
0.00035872
0.000361023
0.00036341
0.000365873
0.000333576
0.000333694
0.000333916
0.00033424
0.000334671
0.000335207
0.000335848
0.000336594
0.000337444
0.000338396
0.000339449
0.000340602
0.000341855
0.000343208
0.000344659
0.000346209
0.000347856
0.000349599
0.000351436
0.000353364
0.00035538
0.000357481
0.000359661
0.000361914
0.000364233
0.000333094
0.00033321
0.000333427
0.000333747
0.000334171
0.000334699
0.000335331
0.000336065
0.000336898
0.00033783
0.000338858
0.000339981
0.000341198
0.000342508
0.00034391
0.000345403
0.000346985
0.000348655
0.00035041
0.000352247
0.000354164
0.000356156
0.000358217
0.000360342
0.000362526
0.000332536
0.000332649
0.000332861
0.000333175
0.000333593
0.000334112
0.000334733
0.000335453
0.000336269
0.000337179
0.000338182
0.000339274
0.000340454
0.000341721
0.000343073
0.000344509
0.000346027
0.000347625
0.000349301
0.000351051
0.000352871
0.000354758
0.000356706
0.00035871
0.000360764
0.000331908
0.000332018
0.000332226
0.000332534
0.000332943
0.000333454
0.000334062
0.000334767
0.000335565
0.000336454
0.000337429
0.00033849
0.000339633
0.000340857
0.00034216
0.00034354
0.000344995
0.000346523
0.000348121
0.000349786
0.000351514
0.0003533
0.000355141
0.000357029
0.00035896
0.000331218
0.000331324
0.000331527
0.000331829
0.00033223
0.000332731
0.000333327
0.000334016
0.000334795
0.000335661
0.000336609
0.000337638
0.000338744
0.000339925
0.000341179
0.000342505
0.000343898
0.000345358
0.000346882
0.000348465
0.000350104
0.000351794
0.000353532
0.000355311
0.000357126
0.000330471
0.000330575
0.000330773
0.000331068
0.000331461
0.00033195
0.000332534
0.000333207
0.000333967
0.000334809
0.00033573
0.000336727
0.000337796
0.000338935
0.000340142
0.000341413
0.000342747
0.000344141
0.000345592
0.000347097
0.000348651
0.00035025
0.00035189
0.000353565
0.00035527
0.000329676
0.000329776
0.000329969
0.000330257
0.000330642
0.00033112
0.00033169
0.000332347
0.000333087
0.000333907
0.000334801
0.000335766
0.000336798
0.000337896
0.000339055
0.000340275
0.000341551
0.000342882
0.000344263
0.000345692
0.000347165
0.000348678
0.000350225
0.000351802
0.000353403
0.000328837
0.000328934
0.000329122
0.000329403
0.000329779
0.000330247
0.000330803
0.000331444
0.000332164
0.00033296
0.000333827
0.000334761
0.000335758
0.000336815
0.000337929
0.000339098
0.000340318
0.000341588
0.000342903
0.00034426
0.000345655
0.000347085
0.000348544
0.000350028
0.000351531
0.000327961
0.000328055
0.000328238
0.000328513
0.00032888
0.000329336
0.000329879
0.000330503
0.000331205
0.000331978
0.000332818
0.000333721
0.000334682
0.0003357
0.00033677
0.00033789
0.000339057
0.000340267
0.000341519
0.000342807
0.000344129
0.00034548
0.000346856
0.000348252
0.000349663
0.000327053
0.000327145
0.000327323
0.000327591
0.000327949
0.000328395
0.000328924
0.000329532
0.000330214
0.000330965
0.000331779
0.000332651
0.000333579
0.000334558
0.000335586
0.000336659
0.000337774
0.000338928
0.000340118
0.000341341
0.000342593
0.00034387
0.000345167
0.000346481
0.000347806
0.00032612
0.000326209
0.000326383
0.000326644
0.000326994
0.000327429
0.000327945
0.000328537
0.0003292
0.000329928
0.000330716
0.00033156
0.000332455
0.000333397
0.000334383
0.000335411
0.000336476
0.000337577
0.000338709
0.00033987
0.000341055
0.000342262
0.000343485
0.00034472
0.000345964
0.000325167
0.000325253
0.000325422
0.000325678
0.000326019
0.000326443
0.000326946
0.000327522
0.000328167
0.000328873
0.000329637
0.000330452
0.000331315
0.000332222
0.000333168
0.000334152
0.000335171
0.00033622
0.000337297
0.000338399
0.000339521
0.000340661
0.000341814
0.000342976
0.000344143
0.000324198
0.000324282
0.000324447
0.000324696
0.00032503
0.000325444
0.000325934
0.000326495
0.000327121
0.000327807
0.000328546
0.000329334
0.000330166
0.000331038
0.000331947
0.00033289
0.000333862
0.000334863
0.000335888
0.000336933
0.000337996
0.000339073
0.00034016
0.000341253
0.000342348
0.000323219
0.000323301
0.000323462
0.000323706
0.000324031
0.000324435
0.000324913
0.000325459
0.000326068
0.000326733
0.000327449
0.000328211
0.000329013
0.000329852
0.000330725
0.000331628
0.000332558
0.000333511
0.000334486
0.000335479
0.000336486
0.000337504
0.000338529
0.000339557
0.000340584
0.000322233
0.000322314
0.000322472
0.00032271
0.000323028
0.000323422
0.000323888
0.00032442
0.000325012
0.000325658
0.000326352
0.000327088
0.000327862
0.000328669
0.000329507
0.000330372
0.000331261
0.000332171
0.000333098
0.000334041
0.000334994
0.000335956
0.000336923
0.00033789
0.000338855
0.000321247
0.000321326
0.000321481
0.000321714
0.000322025
0.00032241
0.000322865
0.000323383
0.000323959
0.000324586
0.000325258
0.000325969
0.000326716
0.000327493
0.000328298
0.000329127
0.000329977
0.000330845
0.000331728
0.000332623
0.000333527
0.000334436
0.000335348
0.000336258
0.000337163
0.000320263
0.000320341
0.000320493
0.000320722
0.000321026
0.000321403
0.000321846
0.000322352
0.000322912
0.000323521
0.000324172
0.00032486
0.000325581
0.00032633
0.000327103
0.000327897
0.00032871
0.000329538
0.000330379
0.000331229
0.000332086
0.000332946
0.000333806
0.000334663
0.000335513
0.000319286
0.000319364
0.000319513
0.000319738
0.000320036
0.000320405
0.000320838
0.000321331
0.000321876
0.000322467
0.000323099
0.000323765
0.000324461
0.000325182
0.000325925
0.000326687
0.000327465
0.000328255
0.000329056
0.000329864
0.000330676
0.00033149
0.000332302
0.000333108
0.000333907
0.000318319
0.000318397
0.000318545
0.000318766
0.000319059
0.000319419
0.000319843
0.000320324
0.000320855
0.00032143
0.000322043
0.000322687
0.000323359
0.000324054
0.000324769
0.0003255
0.000326244
0.000326999
0.000327762
0.00032853
0.000329301
0.000330071
0.000330837
0.000331597
0.000332347
0.000317367
0.000317446
0.000317592
0.00031781
0.000318098
0.000318451
0.000318866
0.000319335
0.000319853
0.000320412
0.000321007
0.000321631
0.00032228
0.00032295
0.000323637
0.000324339
0.000325052
0.000325773
0.0003265
0.000327231
0.000327962
0.000328691
0.000329415
0.000330131
0.000330837
0.000316433
0.000316512
0.000316659
0.000316874
0.000317157
0.000317504
0.00031791
0.000318369
0.000318873
0.000319417
0.000319995
0.000320599
0.000321227
0.000321873
0.000322535
0.000323208
0.000323891
0.00032458
0.000325274
0.000325969
0.000326663
0.000327354
0.000328038
0.000328714
0.000329377
0.00031552
0.000315601
0.000315747
0.000315961
0.00031624
0.000316581
0.000316979
0.000317427
0.00031792
0.00031845
0.00031901
0.000319596
0.000320203
0.000320827
0.000321463
0.00032211
0.000322764
0.000323424
0.000324086
0.000324747
0.000325407
0.000326061
0.000326708
0.000327346
0.00032797
0.000314631
0.000314714
0.000314862
0.000315074
0.00031535
0.000315686
0.000316076
0.000316515
0.000316996
0.000317512
0.000318056
0.000318625
0.000319212
0.000319813
0.000320426
0.000321048
0.000321675
0.000322306
0.000322937
0.000323568
0.000324195
0.000324815
0.000325428
0.000326029
0.000326617
0.00031377
0.000313856
0.000314006
0.000314218
0.000314491
0.000314822
0.000315206
0.000315635
0.000316105
0.000316607
0.000317136
0.000317687
0.000318255
0.000318836
0.000319426
0.000320023
0.000320625
0.000321228
0.000321832
0.000322433
0.000323029
0.000323618
0.000324197
0.000324765
0.00032532
0.000312939
0.00031303
0.000313182
0.000313394
0.000313666
0.000313993
0.00031437
0.000314791
0.000315249
0.000315739
0.000316253
0.000316787
0.000317336
0.000317897
0.000318465
0.000319039
0.000319616
0.000320194
0.00032077
0.000321343
0.00032191
0.00032247
0.000323019
0.000323556
0.000324079
0.000312143
0.000312239
0.000312395
0.000312608
0.000312878
0.000313201
0.000313572
0.000313985
0.000314433
0.000314909
0.000315409
0.000315927
0.000316458
0.000316999
0.000317546
0.000318098
0.000318651
0.000319205
0.000319755
0.000320302
0.000320842
0.000321373
0.000321894
0.000322402
0.000322896
0.000311383
0.000311486
0.000311647
0.000311862
0.000312132
0.000312452
0.000312816
0.000313221
0.000313658
0.000314122
0.000314607
0.000315109
0.000315622
0.000316144
0.000316671
0.000317201
0.000317732
0.000318261
0.000318788
0.000319309
0.000319823
0.000320329
0.000320823
0.000321304
0.000321771
0.000310663
0.000310774
0.000310942
0.000311161
0.00031143
0.000311747
0.000312106
0.000312502
0.000312928
0.000313379
0.00031385
0.000314335
0.000314831
0.000315334
0.000315841
0.00031635
0.000316859
0.000317366
0.000317869
0.000318367
0.000318857
0.000319337
0.000319807
0.000320263
0.000320705
0.000309987
0.000310108
0.000310284
0.000310507
0.000310777
0.00031109
0.000311444
0.000311831
0.000312246
0.000312684
0.00031314
0.000313609
0.000314086
0.00031457
0.000315057
0.000315546
0.000316034
0.000316519
0.000317
0.000317475
0.000317942
0.0003184
0.000318846
0.000319279
0.000319698
0.000309358
0.000309491
0.000309678
0.000309905
0.000310176
0.000310487
0.000310834
0.000311211
0.000311614
0.000312039
0.000312479
0.00031293
0.00031339
0.000313855
0.000314322
0.000314791
0.000315258
0.000315722
0.000316182
0.000316635
0.000317081
0.000317517
0.000317941
0.000318353
0.00031875
0.000308779
0.000308928
0.000309127
0.000309361
0.000309633
0.00030994
0.000310279
0.000310646
0.000311036
0.000311445
0.000311868
0.000312302
0.000312743
0.000313188
0.000313636
0.000314084
0.000314531
0.000314975
0.000315414
0.000315847
0.000316272
0.000316688
0.000317093
0.000317484
0.000317862
0.000308257
0.000308424
0.000308638
0.00030888
0.000309152
0.000309455
0.000309785
0.000310139
0.000310514
0.000310905
0.00031131
0.000311725
0.000312146
0.000312572
0.000312999
0.000313428
0.000313855
0.000314279
0.000314698
0.000315112
0.000315518
0.000315914
0.0003163
0.000316673
0.000317033
0.000307796
0.000307986
0.000308219
0.000308469
0.000308741
0.000309036
0.000309355
0.000309693
0.00031005
0.000310422
0.000310806
0.0003112
0.0003116
0.000312005
0.000312413
0.000312821
0.000313228
0.000313633
0.000314034
0.000314429
0.000314816
0.000315195
0.000315563
0.00031592
0.000316262
0.000307404
0.000307623
0.000307878
0.000308135
0.000308405
0.00030869
0.000308992
0.000309311
0.000309646
0.000309995
0.000310357
0.000310727
0.000311106
0.000311489
0.000311875
0.000312264
0.000312651
0.000313038
0.00031342
0.000313797
0.000314168
0.00031453
0.000314882
0.000315223
0.000315551
0.000307091
0.000307345
0.000307626
0.00030789
0.000308153
0.000308423
0.000308703
0.000308996
0.000309304
0.000309626
0.000309961
0.000310307
0.000310661
0.000311022
0.000311387
0.000311755
0.000312124
0.000312492
0.000312857
0.000313218
0.000313572
0.000313919
0.000314256
0.000314583
0.000314897
0.000306871
0.000307169
0.00030748
0.000307748
0.000307996
0.000308241
0.00030849
0.00030875
0.000309025
0.000309315
0.00030962
0.000309938
0.000310266
0.000310603
0.000310947
0.000311295
0.000311645
0.000311995
0.000312344
0.000312689
0.000313029
0.000313361
0.000313685
0.000313999
0.000314301
0.000306766
0.000307119
0.000307461
0.000307723
0.000307945
0.000308151
0.000308357
0.000308574
0.000308807
0.000309059
0.00030933
0.000309617
0.000309918
0.000310231
0.000310553
0.000310881
0.000311213
0.000311547
0.00031188
0.00031221
0.000312537
0.000312856
0.000313168
0.00031347
0.000313762
0.000306814
0.00030723
0.000307599
0.00030784
0.000308012
0.000308159
0.000308306
0.000308466
0.000308649
0.000308856
0.000309088
0.000309342
0.000309614
0.000309902
0.000310202
0.000310511
0.000310826
0.000311145
0.000311464
0.000311781
0.000312095
0.000312403
0.000312704
0.000312996
0.000313278
0.000307076
0.000307556
0.000307937
0.000308122
0.000308211
0.00030827
0.000308334
0.000308422
0.000308543
0.000308699
0.000308888
0.000309107
0.00030935
0.000309614
0.000309893
0.000310184
0.000310483
0.000310788
0.000311094
0.0003114
0.000311703
0.000312002
0.000312293
0.000312577
0.00031285
0.000307669
0.000308187
0.000308533
0.000308601
0.000308551
0.000308482
0.000308435
0.000308432
0.00030848
0.000308579
0.000308723
0.000308906
0.000309121
0.000309361
0.000309622
0.000309896
0.000310182
0.000310474
0.00031077
0.000311066
0.00031136
0.00031165
0.000311934
0.00031221
0.000312477
0.000308798
0.000309255
0.000309459
0.000309303
0.000309034
0.000308782
0.000308591
0.000308479
0.000308446
0.000308484
0.000308583
0.000308732
0.000308921
0.000309141
0.000309384
0.000309646
0.00030992
0.000310203
0.000310489
0.000310778
0.000311065
0.000311348
0.000311626
0.000311896
0.000312157
0.000310817
0.000310959
0.000310791
0.000310237
0.000309636
0.000309136
0.000308771
0.000308538
0.00030842
0.000308399
0.000308457
0.000308576
0.000308743
0.000308947
0.000309179
0.00030943
0.000309696
0.000309972
0.000310253
0.000310535
0.000310817
0.000311096
0.000311368
0.000311634
0.000311891
0.000314665
0.000313716
0.000312584
0.000311338
0.000310272
0.000309472
0.000308916
0.000308562
0.000308369
0.000308301
0.000308328
0.000308427
0.000308581
0.000308775
0.000308999
0.000309246
0.000309507
0.000309779
0.000310056
0.000310336
0.000310615
0.00031089
0.00031116
0.000311423
0.000311676
0.00032353
0.000318458
0.000314776
0.000312391
0.000310754
0.000309642
0.000308922
0.000308484
0.000308248
0.000308158
0.000308174
0.000308268
0.00030842
0.000308613
0.000308838
0.000309085
0.000309346