/*--------------------------------*- C++ -*----------------------------------*\
  =========                 |
  \\      /  F ield         | OpenFOAM: The Open Source CFD Toolbox
   \\    /   O peration     | Website:  https://openfoam.org
    \\  /    A nd           | Version:  13
     \\/     M anipulation  |
\*---------------------------------------------------------------------------*/
FoamFile
{
    format      ascii;
    class       volScalarField;
    location    "24";
    object      p;
}
// * * * * * * * * * * * * * * * * * * * * * * * * * * * * * * * * * * * * * //

dimensions      [0 2 -2 0 0 0 0];

internalField   nonuniform List<scalar> 
6440
(
145.153
145.16
145.172
145.18
145.154
145.086
144.985
144.862
144.733
144.617
144.529
144.483
144.485
144.536
144.632
144.759
144.895
145.01
145.081
145.105
145.109
145.109
145.109
145.108
145.107
145.142
145.148
145.151
145.132
145.075
144.978
144.851
144.71
144.571
144.454
144.371
144.337
144.354
144.417
144.528
144.674
144.832
144.975
145.077
145.119
145.117
145.105
145.098
145.096
145.099
145.129
145.129
145.1
145.031
144.928
144.797
144.648
144.492
144.345
144.223
144.14
144.109
144.132
144.2
144.316
144.471
144.644
144.809
144.946
145.036
145.076
145.086
145.087
145.089
145.096
145.1
145.08
145
144.878
144.731
144.564
144.386
144.209
144.047
143.917
143.832
143.8
143.827
143.912
144.049
144.226
144.424
144.622
144.798
144.939
145.032
145.078
145.089
145.096
145.106
145.025
144.974
144.857
144.702
144.517
144.311
144.098
143.896
143.721
143.589
143.512
143.5
143.549
143.655
143.815
144.019
144.253
144.492
144.712
144.895
145.029
145.098
145.11
145.115
145.126
144.927
144.86
144.736
144.565
144.351
144.111
143.869
143.647
143.464
143.335
143.272
143.285
143.361
143.491
143.675
143.909
144.179
144.455
144.709
144.92
145.07
145.14
145.141
145.137
145.149
144.889
144.819
144.695
144.514
144.286
144.032
143.778
143.55
143.371
143.26
143.218
143.232
143.305
143.444
143.648
143.91
144.207
144.507
144.777
144.994
145.133
145.178
145.167
145.157
145.166
144.958
144.887
144.759
144.567
144.325
144.058
143.791
143.554
143.37
143.26
143.226
143.254
143.347
143.507
143.735
144.02
144.332
144.635
144.898
145.094
145.191
145.203
145.185
145.172
145.173
145.133
145.064
144.925
144.72
144.464
144.186
143.913
143.672
143.489
143.378
143.344
143.382
143.493
143.675
143.925
144.221
144.529
144.813
145.041
145.178
145.226
145.221
145.196
145.176
145.168
145.378
145.302
145.146
144.925
144.659
144.378
144.109
143.877
143.703
143.599
143.572
143.621
143.75
143.95
144.206
144.493
144.769
144.996
145.142
145.209
145.225
145.211
145.189
145.17
145.162
145.587
145.505
145.338
145.11
144.846
144.575
144.323
144.111
143.956
143.871
143.859
143.927
144.073
144.275
144.518
144.765
144.965
145.094
145.157
145.181
145.182
145.176
145.168
145.159
145.154
145.685
145.597
145.426
145.203
144.956
144.709
144.485
144.303
144.183
144.129
144.135
144.213
144.363
144.557
144.76
144.931
145.043
145.102
145.127
145.133
145.133
145.134
145.138
145.14
145.144
145.665
145.567
145.391
145.177
144.954
144.741
144.553
144.411
144.326
144.295
144.318
144.401
144.54
144.705
144.861
144.981
145.054
145.087
145.098
145.1
145.101
145.106
145.117
145.129
145.143
145.534
145.429
145.256
145.06
144.863
144.681
144.524
144.408
144.342
144.329
144.367
144.456
144.587
144.737
144.875
144.975
145.034
145.064
145.076
145.083
145.088
145.093
145.108
145.127
145.15
145.355
145.248
145.096
144.924
144.749
144.587
144.452
144.354
144.301
144.298
144.348
144.444
144.572
144.708
144.83
144.927
144.992
145.029
145.053
145.071
145.082
145.092
145.111
145.138
145.164
145.163
145.059
144.93
144.78
144.626
144.484
144.371
144.293
144.249
144.249
144.297
144.388
144.506
144.634
144.754
144.855
144.929
144.982
145.023
145.055
145.078
145.1
145.128
145.162
145.188
144.947
144.857
144.748
144.619
144.491
144.373
144.275
144.208
144.161
144.153
144.195
144.281
144.398
144.525
144.649
144.755
144.846
144.92
144.984
145.035
145.077
145.115
145.153
145.193
145.213
144.713
144.638
144.55
144.447
144.352
144.254
144.155
144.084
144.029
144.015
144.055
144.144
144.259
144.389
144.517
144.642
144.753
144.857
144.945
145.02
145.08
145.135
145.181
145.224
145.22
144.473
144.411
144.34
144.265
144.207
144.118
144.007
143.924
143.865
143.853
143.896
143.983
144.102
144.237
144.383
144.527
144.671
144.801
144.919
145.015
145.095
145.157
145.202
145.228
145.171
144.232
144.181
144.119
144.07
144.028
143.948
143.846
143.751
143.695
143.681
143.722
143.811
143.933
144.081
144.245
144.417
144.587
144.746
144.886
145.007
145.101
145.176
145.21
145.237
145.062
144.005
143.965
143.907
143.861
143.829
143.763
143.682
143.589
143.524
143.502
143.539
143.624
143.75
143.906
144.083
144.274
144.466
144.644
144.798
144.927
145.028
145.096
145.108
145.063
144.775
143.794
143.758
143.696
143.649
143.612
143.564
143.501
143.425
143.361
143.327
143.348
143.425
143.548
143.707
143.894
144.101
144.312
144.507
144.676
144.815
144.922
144.989
145.01
144.963
144.889
143.609
143.574
143.512
143.45
143.405
143.361
143.306
143.246
143.193
143.159
143.17
143.239
143.361
143.52
143.711
143.925
144.146
144.351
144.53
144.677
144.787
144.854
144.881
144.861
144.825
143.455
143.422
143.359
143.288
143.226
143.174
143.118
143.061
143.014
142.985
142.993
143.06
143.182
143.342
143.533
143.748
143.971
144.181
144.367
144.518
144.628
144.695
144.718
144.69
144.611
143.334
143.302
143.239
143.16
143.086
143.028
142.969
142.902
142.841
142.809
142.816
142.884
143.011
143.174
143.362
143.573
143.793
144.004
144.191
144.343
144.451
144.515
144.532
144.502
144.415
143.248
143.214
143.149
143.068
142.991
142.929
142.863
142.771
142.676
142.627
142.63
142.7
142.838
143.008
143.197
143.402
143.617
143.825
144.01
144.158
144.263
144.322
144.336
144.301
144.22
143.194
143.156
143.088
143.011
142.933
142.868
142.778
142.647
142.512
142.436
142.428
142.501
142.656
142.84
143.035
143.237
143.447
143.649
143.828
143.97
144.069
144.122
144.131
144.098
144.017
143.174
143.13
143.057
142.971
142.891
142.809
142.694
142.527
142.349
142.235
142.213
142.289
142.465
142.671
142.878
143.082
143.285
143.479
143.65
143.783
143.874
143.921
143.926
143.889
143.813
143.179
143.13
143.048
142.954
142.854
142.755
142.619
142.421
142.197
142.042
142.008
142.087
142.278
142.509
142.73
142.938
143.135
143.32
143.479
143.601
143.682
143.721
143.721
143.685
143.61
143.209
143.156
143.066
142.957
142.848
142.731
142.575
142.348
142.082
141.885
141.853
141.923
142.116
142.366
142.601
142.81
143.001
143.174
143.318
143.427
143.496
143.527
143.523
143.483
143.411
143.262
143.208
143.115
143.003
142.878
142.747
142.576
142.338
142.057
141.828
141.762
141.81
141.997
142.256
142.497
142.705
142.887
143.044
143.172
143.264
143.321
143.343
143.331
143.289
143.214
143.344
143.29
143.196
143.075
142.946
142.803
142.631
142.408
142.14
141.888
141.768
141.782
141.951
142.199
142.431
142.627
142.794
142.933
143.041
143.116
143.158
143.169
143.15
143.101
143.025
143.454
143.401
143.302
143.177
143.036
142.892
142.733
142.54
142.287
142.03
141.873
141.856
141.988
142.201
142.407
142.581
142.726
142.842
142.928
142.983
143.009
143.008
142.979
142.924
142.842
143.591
143.536
143.432
143.296
143.151
143.006
142.862
142.689
142.458
142.216
142.054
142.011
142.101
142.262
142.425
142.566
142.682
142.771
142.832
142.867
142.876
142.861
142.822
142.757
142.667
143.745
143.687
143.575
143.435
143.281
143.133
142.993
142.834
142.632
142.425
142.276
142.223
142.266
142.368
142.478
142.578
142.659
142.718
142.754
142.768
142.76
142.729
142.677
142.602
142.501
143.904
143.844
143.726
143.579
143.42
143.265
143.12
142.974
142.808
142.642
142.517
142.456
142.456
142.498
142.555
142.611
142.655
142.683
142.693
142.685
142.658
142.612
142.545
142.457
142.345
144.051
143.995
143.874
143.726
143.563
143.403
143.257
143.123
142.989
142.858
142.753
142.688
142.649
142.635
142.642
142.657
142.666
142.662
142.647
142.616
142.57
142.507
142.426
142.323
142.199
144.168
144.126
144.009
143.866
143.709
143.553
143.412
143.29
143.175
143.066
142.976
142.902
142.828
142.767
142.733
142.711
142.685
142.653
142.612
142.56
142.495
142.414
142.317
142.201
142.063
144.242
144.219
144.123
143.997
143.856
143.712
143.579
143.462
143.355
143.26
143.182
143.094
142.983
142.887
142.822
142.767
142.709
142.651
142.587
142.513
142.429
142.332
142.219
142.089
141.939
144.284
144.28
144.219
144.114
143.993
143.863
143.736
143.62
143.518
143.433
143.368
143.258
143.115
142.996
142.906
142.822
142.737
142.654
142.567
142.474
142.372
142.259
142.131
141.989
141.826
144.309
144.324
144.298
144.219
144.112
143.991
143.868
143.756
143.661
143.585
143.528
143.394
143.229
143.098
142.983
142.869
142.763
142.659
142.552
142.441
142.322
142.194
142.054
141.898
141.725
144.334
144.354
144.357
144.304
144.208
144.093
143.978
143.879
143.796
143.728
143.665
143.506
143.334
143.185
143.045
142.913
142.787
142.664
142.54
142.412
142.279
142.137
141.984
141.818
141.635
144.358
144.376
144.396
144.365
144.281
144.178
144.081
144
143.933
143.878
143.784
143.605
143.425
143.257
143.098
142.949
142.808
142.668
142.529
142.387
142.241
142.088
141.924
141.747
141.556
144.378
144.393
144.412
144.392
144.327
144.249
144.181
144.118
144.063
144.025
143.898
143.695
143.5
143.317
143.143
142.98
142.824
142.671
142.519
142.365
142.208
142.044
141.871
141.687
141.487
144.396
144.406
144.409
144.387
144.339
144.297
144.266
144.23
144.191
144.163
144.003
143.776
143.562
143.365
143.18
143.003
142.835
142.671
142.508
142.345
142.178
142.006
141.825
141.633
141.429
144.415
144.42
144.403
144.36
144.322
144.312
144.326
144.331
144.324
144.302
144.094
143.838
143.609
143.401
143.205
143.019
142.841
142.668
142.497
142.326
142.151
141.972
141.785
141.589
141.379
144.433
144.435
144.403
144.34
144.299
144.311
144.362
144.416
144.463
144.397
144.148
143.878
143.638
143.422
143.219
143.026
142.841
142.662
142.484
142.307
142.127
141.942
141.751
141.55
141.338
144.441
144.44
144.401
144.33
144.289
144.317
144.392
144.487
144.572
144.438
144.162
143.888
143.647
143.427
143.22
143.024
142.835
142.651
142.47
142.288
142.104
141.916
141.721
141.518
141.304
144.426
144.419
144.377
144.316
144.295
144.342
144.443
144.571
144.609
144.42
144.138
143.871
143.635
143.417
143.21
143.013
142.823
142.636
142.452
142.268
142.082
141.891
141.695
141.491
141.277
144.368
144.348
144.306
144.279
144.304
144.387
144.511
144.634
144.582
144.351
144.078
143.83
143.603
143.391
143.188
142.993
142.803
142.617
142.432
142.247
142.06
141.869
141.673
141.469
141.255
144.261
144.217
144.175
144.185
144.269
144.399
144.549
144.604
144.468
144.235
143.99
143.766
143.554
143.351
143.155
142.965
142.778
142.593
142.41
142.225
142.039
141.848
141.653
141.45
141.239
144.104
144.037
143.993
144.036
144.163
144.327
144.468
144.442
144.292
144.101
143.889
143.687
143.491
143.3
143.113
142.929
142.746
142.565
142.384
142.202
142.017
141.829
141.635
141.435
141.227
143.918
143.845
143.801
143.861
144.01
144.181
144.275
144.235
144.111
143.95
143.776
143.597
143.419
143.241
143.064
142.887
142.71
142.534
142.356
142.177
141.995
141.81
141.619
141.422
141.218
143.741
143.671
143.638
143.709
143.854
144.009
144.078
144.041
143.939
143.809
143.661
143.504
143.342
143.177
143.009
142.841
142.671
142.5
142.327
142.152
141.973
141.791
141.604
141.412
141.213
143.608
143.549
143.528
143.588
143.724
143.853
143.9
143.867
143.785
143.675
143.548
143.409
143.262
143.109
142.952
142.791
142.629
142.463
142.296
142.125
141.951
141.774
141.591
141.403
141.209
143.535
143.486
143.471
143.51
143.624
143.725
143.746
143.712
143.646
143.554
143.443
143.319
143.184
143.041
142.893
142.741
142.585
142.426
142.264
142.098
141.929
141.756
141.579
141.396
141.208
143.517
143.477
143.459
143.479
143.558
143.619
143.622
143.589
143.529
143.446
143.347
143.233
143.108
142.975
142.835
142.69
142.541
142.388
142.232
142.071
141.908
141.74
141.567
141.391
141.208
143.531
143.503
143.484
143.487
143.526
143.537
143.526
143.491
143.431
143.353
143.26
143.154
143.036
142.911
142.778
142.64
142.497
142.35
142.199
142.045
141.886
141.724
141.557
141.386
141.21
143.556
143.54
143.528
143.511
143.507
143.481
143.456
143.412
143.349
143.272
143.183
143.081
142.969
142.85
142.724
142.592
142.455
142.313
142.168
142.019
141.866
141.709
141.547
141.382
141.212
143.579
143.572
143.568
143.534
143.489
143.445
143.403
143.347
143.28
143.202
143.113
143.015
142.907
142.793
142.672
142.545
142.414
142.278
142.137
141.993
141.846
141.694
141.539
141.379
141.216
143.595
143.596
143.594
143.546
143.469
143.418
143.358
143.291
143.22
143.14
143.051
142.954
142.85
142.739
142.623
142.501
142.374
142.243
142.108
141.969
141.826
141.68
141.53
141.377
141.22
143.601
143.612
143.604
143.54
143.446
143.389
143.317
143.243
143.166
143.084
142.995
142.899
142.797
142.69
142.577
142.459
142.336
142.21
142.08
141.946
141.808
141.667
141.523
141.375
141.224
143.595
143.614
143.6
143.521
143.423
143.353
143.277
143.199
143.118
143.033
142.943
142.848
142.748
142.643
142.533
142.419
142.3
142.178
142.052
141.923
141.791
141.655
141.516
141.374
141.229
143.578
143.6
143.582
143.49
143.404
143.32
143.237
143.156
143.072
142.985
142.895
142.8
142.702
142.599
142.492
142.381
142.266
142.148
142.026
141.902
141.774
141.643
141.51
141.373
141.234
143.56
143.578
143.555
143.452
143.376
143.286
143.198
143.114
143.029
142.941
142.85
142.756
142.658
142.557
142.453
142.345
142.234
142.119
142.002
141.881
141.758
141.632
141.504
141.373
141.239
143.546
143.558
143.522
143.412
143.337
143.249
143.16
143.073
142.986
142.898
142.807
142.713
142.617
142.518
142.416
142.311
142.203
142.092
141.978
141.862
141.743
141.622
141.498
141.372
141.245
143.536
143.543
143.482
143.379
143.298
143.211
143.121
143.033
142.945
142.856
142.765
142.672
142.578
142.48
142.381
142.278
142.173
142.066
141.956
141.843
141.729
141.612
141.493
141.372
141.25
143.521
143.526
143.442
143.351
143.261
143.172
143.083
142.993
142.905
142.815
142.725
142.633
142.54
142.444
142.346
142.247
142.145
142.04
141.934
141.825
141.715
141.602
141.488
141.372
141.255
143.497
143.502
143.4
143.321
143.224
143.133
143.043
142.953
142.864
142.775
142.686
142.595
142.502
142.409
142.313
142.216
142.117
142.016
141.913
141.808
141.702
141.593
141.483
141.372
141.259
143.473
143.476
143.354
143.279
143.184
143.092
143.002
142.913
142.824
142.735
142.646
142.557
142.466
142.374
142.281
142.187
142.09
141.992
141.893
141.791
141.689
141.584
141.479
141.372
141.264
143.456
143.445
143.312
143.236
143.142
143.049
142.96
142.871
142.782
142.695
142.607
142.519
142.43
142.341
142.25
142.158
142.064
141.969
141.873
141.775
141.676
141.576
141.474
141.372
141.268
143.438
143.409
143.273
143.19
143.096
143.004
142.915
142.827
142.74
142.654
142.567
142.481
142.394
142.307
142.219
142.129
142.038
141.946
141.853
141.759
141.664
141.567
141.469
141.371
141.272
143.406
143.359
143.231
143.14
143.047
142.956
142.868
142.782
142.697
142.612
142.528
142.443
142.359
142.274
142.188
142.101
142.013
141.924
141.834
141.743
141.651
141.558
141.464
141.37
141.275
143.357
143.297
143.181
143.085
142.994
142.905
142.819
142.735
142.652
142.569
142.487
142.405
142.323
142.24
142.157
142.073
141.988
141.902
141.815
141.728
141.639
141.55
141.46
141.369
141.278
143.292
143.22
143.118
143.023
142.935
142.85
142.767
142.686
142.606
142.526
142.447
142.367
142.287
142.207
142.127
142.046
141.964
141.881
141.797
141.712
141.627
141.541
141.455
141.368
141.28
143.209
143.13
143.043
142.955
142.872
142.792
142.713
142.635
142.558
142.482
142.405
142.329
142.252
142.175
142.097
142.018
141.939
141.859
141.779
141.697
141.615
141.533
141.45
141.366
141.283
143.11
143.034
142.962
142.882
142.806
142.731
142.657
142.584
142.51
142.437
142.364
142.29
142.216
142.142
142.067
141.992
141.915
141.838
141.761
141.683
141.604
141.524
141.444
141.365
141.284
143.004
142.938
142.877
142.807
142.738
142.669
142.6
142.531
142.462
142.392
142.322
142.252
142.181
142.11
142.038
141.965
141.892
141.818
141.743
141.668
141.592
141.516
141.439
141.362
141.286
142.898
142.844
142.792
142.731
142.67
142.607
142.543
142.478
142.413
142.347
142.281
142.214
142.146
142.078
142.009
141.939
141.869
141.798
141.726
141.654
141.581
141.508
141.434
141.36
141.286
142.798
142.754
142.71
142.657
142.602
142.545
142.486
142.426
142.365
142.303
142.24
142.176
142.112
142.047
141.981
141.914
141.846
141.778
141.709
141.64
141.57
141.499
141.429
141.358
141.287
142.705
142.669
142.632
142.585
142.537
142.485
142.431
142.375
142.318
142.259
142.2
142.14
142.078
142.016
141.953
141.889
141.824
141.759
141.692
141.626
141.559
141.491
141.423
141.356
141.287
142.618
142.589
142.557
142.517
142.474
142.426
142.377
142.325
142.272
142.217
142.161
142.104
142.046
141.986
141.926
141.865
141.803
141.74
141.676
141.612
141.548
141.483
141.418
141.353
141.288
142.54
142.515
142.488
142.452
142.414
142.371
142.325
142.277
142.228
142.176
142.124
142.069
142.014
141.958
141.9
141.842
141.782
141.722
141.661
141.599
141.537
141.475
141.412
141.35
141.287
142.468
142.447
142.424
142.392
142.357
142.318
142.276
142.232
142.185
142.137
142.087
142.036
141.984
141.93
141.875
141.819
141.762
141.704
141.646
141.587
141.527
141.467
141.407
141.347
141.287
142.402
142.384
142.364
142.335
142.305
142.268
142.23
142.189
142.145
142.1
142.053
142.004
141.955
141.903
141.851
141.797
141.743
141.687
141.631
141.574
141.517
141.46
141.402
141.344
141.286
142.343
142.327
142.31
142.284
142.255
142.222
142.187
142.148
142.107
142.065
142.02
141.974
141.927
141.878
141.828
141.777
141.724
141.671
141.617
141.563
141.508
141.452
141.396
141.34
141.284
142.29
142.276
142.26
142.236
142.211
142.18
142.147
142.111
142.072
142.032
141.99
141.946
141.901
141.854
141.806
141.757
141.707
141.656
141.604
141.551
141.498
141.445
141.391
141.337
141.283
142.243
142.23
142.216
142.194
142.17
142.141
142.111
142.076
142.04
142.002
141.962
141.92
141.877
141.832
141.786
141.739
141.691
141.642
141.592
141.541
141.49
141.438
141.386
141.334
141.282
142.2
142.189
142.177
142.156
142.134
142.107
142.078
142.046
142.011
141.975
141.937
141.897
141.855
141.812
141.768
141.723
141.676
141.629
141.58
141.531
141.482
141.432
141.382
141.331
141.281
142.163
142.153
142.142
142.123
142.102
142.077
142.049
142.019
141.986
141.951
141.914
141.876
141.836
141.794
141.752
141.708
141.663
141.617
141.57
141.523
141.475
141.426
141.378
141.329
141.28
142.13
142.121
142.112
142.093
142.075
142.05
142.024
141.994
141.963
141.929
141.894
141.857
141.818
141.778
141.737
141.694
141.651
141.606
141.561
141.515
141.468
141.421
141.374
141.326
141.279
142.102
142.094
142.085
142.068
142.05
142.026
142.001
141.972
141.942
141.91
141.875
141.84
141.802
141.763
141.723
141.682
141.639
141.596
141.552
141.507
141.462
141.416
141.37
141.324
141.278
142.079
142.071
142.063
142.045
142.028
142.005
141.98
141.953
141.923
141.891
141.858
141.823
141.787
141.749
141.71
141.67
141.629
141.587
141.544
141.5
141.456
141.411
141.366
141.321
141.276
142.061
142.052
142.044
142.027
142.009
141.986
141.961
141.934
141.905
141.875
141.842
141.808
141.773
141.736
141.698
141.659
141.619
141.577
141.535
141.493
141.45
141.406
141.362
141.317
141.273
142.047
142.038
142.029
142.011
141.993
141.97
141.945
141.919
141.89
141.86
141.828
141.795
141.76
141.724
141.687
141.649
141.609
141.569
141.528
141.486
141.444
141.401
141.357
141.314
141.271
142.039
142.029
142.019
142
141.981
141.958
141.933
141.906
141.878
141.848
141.817
141.784
141.75
141.714
141.678
141.64
141.601
141.562
141.521
141.48
141.439
141.396
141.354
141.311
141.269
142.035
142.023
142.015
141.994
141.974
141.95
141.925
141.898
141.87
141.84
141.809
141.776
141.742
141.707
141.671
141.634
141.596
141.556
141.517
141.476
141.435
141.393
141.351
141.309
141.267
142.041
142.024
142.017
141.995
141.973
141.948
141.922
141.894
141.866
141.836
141.804
141.772
141.738
141.703
141.667
141.63
141.592
141.553
141.514
141.474
141.433
141.392
141.35
141.309
141.268
142.079
142.044
142.027
142.001
141.975
141.948
141.921
141.893
141.864
141.834
141.803
141.77
141.736
141.701
141.666
141.629
141.591
141.552
141.513
141.473
141.433
141.392
141.35
141.309
141.268
142.155
142.076
142.035
142.004
141.976
141.949
141.922
141.893
141.864
141.834
141.802
141.77
141.736
141.701
141.665
141.628
141.59
141.552
141.513
141.473
141.432
141.392
141.351
141.31
141.269
143.823
143.823
143.822
143.821
143.82
143.82
143.822
143.824
143.828
143.836
143.847
143.864
143.885
143.909
143.93
143.945
143.953
143.956
143.96
143.966
143.973
143.977
143.977
143.975
143.974
143.819
143.818
143.817
143.814
143.811
143.809
143.807
143.806
143.808
143.814
143.825
143.842
143.864
143.889
143.913
143.932
143.946
143.956
143.963
143.966
143.97
143.974
143.976
143.975
143.973
143.801
143.803
143.802
143.798
143.793
143.786
143.78
143.774
143.77
143.771
143.778
143.791
143.812
143.838
143.865
143.892
143.916
143.937
143.955
143.966
143.973
143.975
143.975
143.972
143.969
143.769
143.774
143.775
143.771
143.763
143.751
143.737
143.724
143.713
143.706
143.705
143.711
143.726
143.749
143.779
143.812
143.846
143.881
143.913
143.94
143.959
143.967
143.967
143.964
143.96
143.724
143.732
143.735
143.731
143.719
143.701
143.679
143.658
143.638
143.622
143.612
143.609
143.613
143.627
143.653
143.69
143.733
143.778
143.826
143.873
143.911
143.936
143.947
143.948
143.947
143.671
143.682
143.686
143.68
143.664
143.64
143.613
143.585
143.557
143.532
143.512
143.498
143.493
143.499
143.519
143.552
143.594
143.643
143.702
143.766
143.827
143.878
143.911
143.927
143.93
143.617
143.629
143.633
143.626
143.607
143.581
143.549
143.515
143.48
143.445
143.414
143.391
143.381
143.386
143.406
143.44
143.484
143.535
143.594
143.657
143.726
143.798
143.86
143.9
143.911
143.569
143.581
143.584
143.577
143.557
143.529
143.496
143.459
143.419
143.377
143.339
143.311
143.299
143.306
143.33
143.367
143.413
143.466
143.524
143.587
143.656
143.729
143.803
143.866
143.891
143.53
143.541
143.543
143.536
143.517
143.491
143.458
143.42
143.379
143.336
143.295
143.263
143.248
143.251
143.275
143.316
143.366
143.423
143.484
143.548
143.618
143.692
143.769
143.838
143.875
143.504
143.511
143.511
143.503
143.487
143.463
143.434
143.399
143.36
143.319
143.278
143.244
143.223
143.219
143.235
143.274
143.329
143.393
143.459
143.528
143.6
143.676
143.756
143.829
143.872
143.489
143.494
143.49
143.48
143.465
143.444
143.418
143.388
143.355
143.318
143.281
143.247
143.223
143.215
143.226
143.262
143.318
143.385
143.457
143.529
143.603
143.679
143.761
143.839
143.885
143.482
143.486
143.48
143.467
143.45
143.431
143.409
143.384
143.356
143.327
143.297
143.268
143.247
143.238
143.245
143.277
143.334
143.405
143.481
143.558
143.633
143.709
143.788
143.863
143.913
143.481
143.483
143.475
143.46
143.441
143.421
143.403
143.383
143.362
143.34
143.317
143.296
143.28
143.273
143.282
143.313
143.37
143.445
143.528
143.611
143.691
143.767
143.843
143.911
143.96
143.487
143.484
143.469
143.45
143.428
143.408
143.392
143.379
143.367
143.356
143.342
143.329
143.317
143.315
143.327
143.361
143.421
143.501
143.591
143.682
143.769
143.85
143.924
143.987
144.027
143.505
143.494
143.468
143.438
143.408
143.385
143.369
143.364
143.365
143.365
143.363
143.357
143.349
143.35
143.368
143.409
143.474
143.56
143.658
143.759
143.856
143.945
144.023
144.08
144.108
143.544
143.526
143.492
143.448
143.393
143.343
143.313
143.304
143.313
143.329
143.339
143.34
143.339
143.35
143.382
143.435
143.511
143.606
143.714
143.828
143.939
144.041
144.126
144.184
144.2
143.606
143.587
143.557
143.503
143.42
143.325
143.246
143.213
143.228
143.26
143.281
143.29
143.306
143.334
143.379
143.446
143.532
143.638
143.757
143.882
144.007
144.122
144.221
144.287
144.309
143.677
143.665
143.644
143.59
143.494
143.371
143.255
143.184
143.166
143.183
143.214
143.245
143.278
143.318
143.371
143.444
143.54
143.653
143.78
143.917
144.052
144.179
144.289
144.37
144.407
143.744
143.749
143.754
143.712
143.615
143.471
143.313
143.189
143.13
143.129
143.156
143.194
143.231
143.276
143.332
143.409
143.508
143.63
143.768
143.913
144.062
144.202
144.323
144.413
144.46
143.737
143.796
143.847
143.816
143.717
143.561
143.383
143.233
143.137
143.097
143.095
143.108
143.136
143.175
143.23
143.308
143.412
143.542
143.691
143.854
144.017
144.171
144.307
144.41
144.46
143.935
143.962
143.993
143.875
143.694
143.508
143.336
143.194
143.097
143.036
142.999
142.986
142.99
143.015
143.063
143.138
143.245
143.382
143.545
143.717
143.895
144.063
144.212
144.329
144.39
144.48
144.22
144.056
143.846
143.617
143.419
143.254
143.114
143.004
142.917
142.853
142.804
142.782
142.786
142.82
142.887
142.988
143.122
143.282
143.465
143.651
143.833
143.994
144.119
144.191
144.585
144.249
143.972
143.733
143.517
143.333
143.174
143.031
142.899
142.783
142.681
142.603
142.547
142.521
142.526
142.564
142.636
142.745
142.89
143.055
143.24
143.425
143.59
143.707
143.772
144.403
144.106
143.84
143.627
143.442
143.268
143.098
142.934
142.776
142.63
142.503
142.39
142.302
142.238
142.2
142.19
142.213
142.271
142.361
142.489
142.636
142.793
142.942
143.041
143.099
144.253
144.03
143.802
143.595
143.399
143.204
143.009
142.818
142.635
142.465
142.308
142.168
142.044
141.938
141.852
141.786
141.741
141.721
141.731
141.764
141.824
141.9
141.98
142.022
142.03
144.081
143.896
143.69
143.482
143.276
143.069
142.862
142.659
142.462
142.271
142.092
141.919
141.759
141.609
141.471
141.34
141.219
141.105
140.994
140.894
140.796
140.704
140.624
140.541
140.506
143.892
143.728
143.538
143.336
143.129
142.918
142.705
142.491
142.279
142.069
141.861
141.663
141.464
141.265
141.064
140.856
140.637
140.402
140.145
139.851
139.513
139.128
138.7
138.256
137.785
143.697
143.548
143.372
143.179
142.974
142.76
142.541
142.319
142.097
141.874
141.653
141.428
141.197
140.949
140.677
140.372
140.027
139.632
139.163
138.596
137.894
137.037
135.976
134.84
133.52
143.501
143.361
143.195
143.009
142.807
142.593
142.371
142.143
141.911
141.673
141.423
141.162
140.879
140.564
140.207
139.794
139.304
138.71
137.969
137.021
135.768
134.122
131.759
128.765
123.321
143.305
143.171
143.011
142.829
142.629
142.414
142.186
141.947
141.695
141.425
141.135
140.814
140.454
140.039
139.553
138.975
138.277
137.417
136.315
134.868
132.845
130.084
125.544
120.383
103.192
143.111
142.979
142.821
142.641
142.44
142.22
141.98
141.721
141.44
141.133
140.79
140.404
139.956
139.43
138.801
138.036
137.086
135.883
134.311
132.199
129.096
124.574
115.49
100.399
45.3758
142.919
142.786
142.627
142.445
142.238
142.009
141.755
141.474
141.163
140.815
140.421
139.965
139.43
138.792
138.018
137.064
135.865
134.323
132.276
129.484
125.412
119.349
108.982
92.0575
64.4467
142.731
142.595
142.432
142.243
142.029
141.787
141.516
141.212
140.87
140.48
140.031
139.509
138.886
138.136
137.219
136.08
134.642
132.79
130.345
127.036
122.423
115.841
106.427
92.5012
75.7411
142.55
142.407
142.237
142.04
141.815
141.559
141.27
140.942
140.567
140.136
139.636
139.045
138.339
137.482
136.43
135.12
133.466
131.343
128.566
124.876
119.887
113.07
103.792
90.937
74.5634
142.375
142.223
142.044
141.837
141.6
141.33
141.021
140.668
140.263
139.793
139.242
138.59
137.806
136.853
135.679
134.219
132.377
130.024
126.975
122.973
117.675
110.612
101.251
88.8974
73.4403
142.208
142.046
141.857
141.639
141.389
141.103
140.775
140.398
139.964
139.457
138.863
138.155
137.303
136.267
134.99
133.403
131.406
128.865
125.593
121.341
115.777
108.48
98.996
86.8156
71.8514
142.051
141.877
141.677
141.447
141.184
140.883
140.537
140.139
139.678
139.14
138.506
137.753
136.846
135.741
134.383
132.697
130.58
127.894
124.451
119.993
114.191
106.615
96.8095
84.2265
68.8821
141.904
141.719
141.507
141.266
140.99
140.674
140.312
139.895
139.412
138.848
138.185
137.395
136.446
135.292
133.876
132.121
129.923
127.139
123.57
118.96
112.943
105.058
94.7856
81.3205
64.8176
141.768
141.572
141.349
141.097
140.809
140.481
140.105
139.673
139.172
138.59
137.903
137.09
136.114
134.931
133.484
131.695
129.457
126.626
122.988
118.27
112.033
103.801
92.8076
77.9314
59.3896
141.644
141.437
141.205
140.942
140.644
140.306
139.919
139.475
138.963
138.367
137.67
136.843
135.857
134.668
133.218
131.434
129.208
126.396
122.766
118.034
111.596
102.951
90.3957
73.08
49.011
141.532
141.316
141.075
140.803
140.497
140.15
139.756
139.305
138.787
138.186
137.485
136.661
135.681
134.506
133.084
131.344
129.19
126.481
123.003
118.451
112.168
103.499
89.3897
69.3613
32.3265
141.433
141.209
140.959
140.681
140.369
140.017
139.619
139.165
138.646
138.047
137.354
136.541
135.583
134.444
133.077
131.421
129.393
126.876
123.692
119.591
114.074
106.538
94.358
76.4674
26.9968
141.346
141.115
140.859
140.576
140.26
139.906
139.507
139.055
138.54
137.951
137.271
136.483
135.56
134.474
133.185
131.643
129.783
127.516
124.719
121.216
116.741
110.963
103.092
93.4445
74.2442
141.271
141.034
140.775
140.488
140.171
139.817
139.42
138.974
138.469
137.894
137.237
136.48
135.604
134.583
133.387
131.979
130.31
128.32
125.931
123.046
119.536
115.259
110.017
103.83
96.1966
141.207
140.967
140.705
140.417
140.1
139.749
139.358
138.921
138.429
137.875
137.245
136.527
135.704
134.758
133.664
132.396
130.923
129.208
127.211
124.884
122.193
119.124
115.732
112.29
109.376
141.154
140.912
140.649
140.362
140.047
139.701
139.319
138.893
138.419
137.888
137.29
136.615
135.851
134.981
133.992
132.865
131.581
130.121
128.468
126.613
124.559
122.344
120.068
117.962
116.406
141.111
140.868
140.605
140.321
140.011
139.672
139.3
138.889
138.434
137.929
137.366
136.737
136.031
135.24
134.353
133.358
132.248
131.014
129.657
128.181
126.612
125.003
123.453
122.136
121.282
141.077
140.834
140.574
140.294
139.99
139.66
139.3
138.905
138.472
137.994
137.467
136.883
136.237
135.521
134.73
133.858
132.902
131.864
130.748
129.572
128.365
127.175
126.084
125.206
124.671
141.05
140.81
140.553
140.278
139.982
139.663
139.316
138.939
138.528
138.079
137.587
137.049
136.459
135.815
135.112
134.349
133.528