/*--------------------------------*- C++ -*----------------------------------*\
  =========                 |
  \\      /  F ield         | OpenFOAM: The Open Source CFD Toolbox
   \\    /   O peration     | Website:  https://openfoam.org
    \\  /    A nd           | Version:  13
     \\/     M anipulation  |
\*---------------------------------------------------------------------------*/
FoamFile
{
    format      ascii;
    class       surfaceScalarField;
    location    "24";
    object      phi;
}
// * * * * * * * * * * * * * * * * * * * * * * * * * * * * * * * * * * * * * //

dimensions      [0 3 -1 0 0 0 0];

internalField   nonuniform List<scalar> 
12590
(
6.75342e-13
-6.75346e-13
1.65671e-12
-9.81374e-13
2.46268e-12
-8.05979e-13
3.10344e-12
-6.40765e-13
3.57555e-12
-4.72114e-13
3.89502e-12
-3.19472e-13
4.03241e-12
-1.37399e-13
3.96302e-12
6.93947e-14
3.67309e-12
2.89924e-13
3.16378e-12
5.09311e-13
2.45087e-12
7.12903e-13
1.56082e-12
8.90047e-13
5.3262e-13
1.0282e-12
-5.4928e-13
1.0819e-12
-1.61225e-12
1.06297e-12
-2.59308e-12
9.80837e-13
-3.39827e-12
8.05185e-13
-4.10547e-12
7.07208e-13
-4.69891e-12
5.93444e-13
-5.21768e-12
5.18769e-13
-5.6773e-12
4.59623e-13
-5.87384e-12
1.96545e-13
-5.56801e-12
-3.05821e-13
-3.44407e-12
-2.12394e-12
-3.44407e-12
6.70309e-13
-1.34566e-12
1.62674e-12
-1.93781e-12
2.46908e-12
-1.64833e-12
3.24702e-12
-1.41872e-12
3.98597e-12
-1.21107e-12
4.69822e-12
-1.03173e-12
5.36132e-12
-8.00507e-13
5.9582e-12
-5.27492e-13
6.47441e-12
-2.26294e-13
6.89864e-12
8.50786e-14
7.22882e-12
3.82721e-13
7.47426e-12
6.44606e-13
7.64018e-12
8.62289e-13
7.68869e-12
1.03339e-12
7.65415e-12
1.09751e-12
7.55311e-12
1.08188e-12
7.33947e-12
1.01883e-12
7.1018e-12
9.44875e-13
6.74231e-12
9.52943e-13
6.22769e-12
1.03339e-12
5.49969e-12
1.18762e-12
4.52327e-12
1.17297e-12
3.17749e-12
1.03997e-12
1.34208e-12
-2.88519e-13
-2.10199e-12
8.54933e-13
-2.20061e-12
1.9523e-12
-3.03519e-12
2.95544e-12
-2.65149e-12
3.95682e-12
-2.42011e-12
4.96052e-12
-2.21478e-12
5.94393e-12
-2.01515e-12
6.88585e-12
-1.74244e-12
7.74749e-12
-1.38914e-12
8.49693e-12
-9.75742e-13
9.10355e-12
-5.21553e-13
9.53754e-12
-5.12697e-14
9.77264e-12
4.09503e-13
9.79604e-12
8.38884e-13
9.60254e-12
1.22689e-12
9.12537e-12
1.57468e-12
8.41641e-12
1.79084e-12
7.53802e-12
1.89723e-12
6.53261e-12
1.95029e-12
5.46173e-12
2.02382e-12
4.39619e-12
2.09894e-12
3.33949e-12
2.24433e-12
2.34133e-12
2.17114e-12
1.43573e-12
1.94558e-12
4.81415e-13
6.658e-13
-1.62057e-12
1.07549e-12
-3.27611e-12
2.30267e-12
-4.26239e-12
3.41081e-12
-3.75965e-12
4.52533e-12
-3.53466e-12
5.69938e-12
-3.38884e-12
6.79038e-12
-3.10616e-12
7.81657e-12
-2.76865e-12
8.74441e-12
-2.31699e-12
9.52689e-12
-1.75823e-12
1.01268e-11
-1.1215e-12
1.05079e-11
-4.32333e-13
1.06389e-11
2.78506e-13
1.05031e-11
9.74695e-13
1.01062e-11
1.62371e-12
9.46069e-12
2.22023e-12
8.48555e-12
2.76597e-12
7.28878e-12
3.094e-12
5.96911e-12
3.26997e-12
4.64737e-12
3.34556e-12
3.42506e-12
3.32126e-12
2.23492e-12
3.43448e-12
1.30515e-12
3.10092e-12
7.20638e-13
2.5301e-12
2.19097e-13
1.16735e-12
-1.40147e-12
1.25652e-12
-4.53265e-12
2.55209e-12
-5.55798e-12
3.69006e-12
-4.89765e-12
4.82175e-12
-4.66638e-12
5.97852e-12
-4.54564e-12
7.13115e-12
-4.25881e-12
8.13132e-12
-3.76885e-12
9.01076e-12
-3.19644e-12
9.73989e-12
-2.48737e-12
1.02797e-11
-1.66133e-12
1.05959e-11
-7.48541e-13
1.06578e-11
2.16604e-13
1.04429e-11
1.18956e-12
9.94757e-12
2.11905e-12
9.20146e-12
2.96634e-12
8.23045e-12
3.73698e-12
6.91974e-12
4.4047e-12
5.46993e-12
4.71978e-12
4.00951e-12
4.80599e-12
2.81109e-12
4.51968e-12
1.82429e-12
4.42128e-12
8.86091e-13
4.03912e-12
4.31324e-13
2.98487e-12
8.21902e-14
1.51649e-12
-1.31928e-12
1.38796e-12
-5.92063e-12
2.69079e-12
-6.86085e-12
3.79614e-12
-6.00303e-12
4.86867e-12
-5.73894e-12
5.92865e-12
-5.60565e-12
6.982e-12
-5.31219e-12
7.99191e-12
-4.77878e-12
8.77015e-12
-3.97471e-12
9.40489e-12
-3.12214e-12
9.86984e-12
-2.1263e-12
1.01395e-11
-1.01822e-12
1.01846e-11
1.71485e-13
9.97812e-12
1.39605e-12
9.50209e-12
2.59507e-12
8.7685e-12
3.69992e-12
7.82173e-12
4.68374e-12
6.68315e-12
5.54328e-12
5.26969e-12
6.13324e-12
3.80945e-12
6.26623e-12
2.45756e-12
5.87158e-12
1.57701e-12
5.30184e-12
8.0967e-13
4.80646e-12
1.74486e-13
3.62006e-12
-8.5768e-14
1.77675e-12
-1.40505e-12
1.48097e-12
-7.40164e-12
2.75e-12
-8.12993e-12
3.78466e-12
-7.03774e-12
4.7556e-12
-6.70992e-12
5.68219e-12
-6.53228e-12
6.56874e-12
-6.19879e-12
7.43778e-12
-5.64785e-12
8.22127e-12
-4.75823e-12
8.73044e-12
-3.63134e-12
9.12374e-12
-2.51962e-12
9.37586e-12
-1.27037e-12
9.46318e-12
8.41479e-14
9.35556e-12
1.50365e-12
9.0217e-12
2.92892e-12
8.44403e-12
4.27758e-12
7.65705e-12
5.47071e-12
6.69861e-12
6.50172e-12
5.4638e-12
7.36805e-12
4.07114e-12
7.6589e-12
2.56268e-12
7.38004e-12
1.52979e-12
6.33473e-12
8.59349e-13
5.4769e-12
1.68116e-13
4.3113e-12
-1.4703e-13
2.0919e-12
-1.55208e-12
1.54464e-12
-8.94633e-12
2.75719e-12
-9.34253e-12
3.70244e-12
-7.98304e-12
4.55261e-12
-7.56015e-12
5.33269e-12
-7.31242e-12
6.05781e-12
-6.92395e-12
6.74617e-12
-6.33625e-12
7.47563e-12
-5.48774e-12
7.90105e-12
-4.05679e-12
8.24819e-12
-2.86679e-12
8.51365e-12
-1.53585e-12
8.6897e-12
-9.19291e-14
8.7498e-12
1.44353e-12
8.65299e-12
3.02572e-12
8.35008e-12
4.58048e-12
7.81867e-12
6.00211e-12
7.09466e-12
7.22572e-12
6.18955e-12
8.27315e-12
4.85083e-12
8.99762e-12
3.29554e-12
8.93532e-12
1.95754e-12
7.67274e-12
1.08438e-12
6.35006e-12
3.77791e-13
5.01789e-12
-1.2782e-13
2.59751e-12
-1.6799e-12
1.58364e-12
-1.053e-11
2.73066e-12
-1.04896e-11
3.5836e-12
-8.83606e-12
4.3145e-12
-8.29111e-12
4.96018e-12
-7.95816e-12
5.54964e-12
-7.51347e-12
6.10945e-12
-6.89611e-12
6.67932e-12
-6.05765e-12
7.17821e-12
-4.55572e-12
7.49005e-12
-3.17866e-12
7.79055e-12
-1.83639e-12
8.08272e-12
-3.84131e-13
8.34862e-12
1.17761e-12
8.54303e-12
2.83129e-12
8.59425e-12
4.52924e-12
8.41854e-12
6.17782e-12
7.98239e-12
7.66185e-12
7.28806e-12
8.96748e-12
6.19336e-12
1.00923e-11
4.70355e-12
1.04251e-11
2.95547e-12
9.42082e-12
1.65984e-12
7.64569e-12
9.47802e-13
5.72993e-12
-7.6321e-14
3.62164e-12
-1.75622e-12
1.59985e-12
-1.21299e-11
2.68261e-12
-1.15725e-11
3.45488e-12
-9.60841e-12
4.08888e-12
-8.92518e-12
4.63801e-12
-8.50737e-12
5.14551e-12
-8.02103e-12
5.64065e-12
-7.39131e-12
6.13536e-12
-6.55242e-12
6.77569e-12
-5.19609e-12
7.10053e-12
-3.50355e-12
7.4817e-12
-2.2176e-12
7.9219e-12
-8.24358e-13
8.41489e-12
6.84596e-13
8.92427e-12
2.3219e-12
9.3745e-12
4.079e-12
9.64639e-12
5.90592e-12
9.62081e-12
7.68743e-12
9.24966e-12
9.33862e-12
8.4741e-12
1.08679e-11
7.00007e-12
1.18992e-11
4.77564e-12
1.16452e-11
2.83419e-12
9.58714e-12
1.59045e-12
6.97368e-12
1.37777e-13
5.07431e-12
-1.61844e-12
1.59329e-12
-1.37233e-11
2.62138e-12
-1.26006e-11
3.33925e-12
-1.03264e-11
3.92152e-12
-9.50753e-12
4.44442e-12
-9.03035e-12
4.96861e-12
-8.54529e-12
5.52855e-12
-7.95131e-12
6.13862e-12
-7.16254e-12
6.85414e-12
-5.91166e-12
7.35622e-12
-4.00567e-12
7.92679e-12
-2.7882e-12
8.58051e-12
-1.4781e-12
9.32353e-12
-5.84525e-14
1.01403e-11
1.50516e-12
1.09746e-11
3.24468e-12
1.17096e-11
5.17085e-12
1.2162e-11
7.23502e-12
1.21736e-11
9.32699e-12
1.16247e-11
1.14168e-11
1.01918e-11
1.3332e-11
7.74318e-12
1.40939e-11
4.76756e-12
1.25628e-11
2.38738e-12
9.35386e-12
5.68837e-13
6.89286e-12
-1.0496e-12
1.56319e-12
-1.52866e-11
2.55354e-12
-1.35911e-11
3.25724e-12
-1.10302e-11
3.85377e-12
-1.01041e-11
4.44598e-12
-9.62263e-12
5.11201e-12
-9.21139e-12
5.88921e-12
-8.72858e-12
6.77985e-12
-8.05324e-12
7.76191e-12
-6.89377e-12
8.61854e-12
-4.86234e-12
9.5458e-12
-3.71549e-12
1.05394e-11
-2.47177e-12
1.15971e-11
-1.1161e-12
1.2717e-11
3.85232e-13
1.38824e-11
2.07925e-12
1.50132e-11
4.04008e-12
1.59252e-11
6.32295e-12
1.6344e-11
8.90821e-12
1.6018e-11
1.17428e-11
1.46979e-11
1.46521e-11
1.21109e-11
1.66809e-11
7.88606e-12
1.67876e-11
3.85037e-12
1.33896e-11
1.1963e-12
9.54692e-12
1.46702e-13
1.50948e-12
-1.67961e-11
2.48708e-12
-1.45687e-11
3.23134e-12
-1.17745e-11
3.92815e-12
-1.0801e-11
4.70826e-12
-1.04028e-11
5.6654e-12
-1.01686e-11
6.8369e-12
-9.90013e-12
8.20816e-12
-9.42454e-12
9.71539e-12
-8.40103e-12
1.11907e-11
-6.33769e-12
1.27494e-11
-5.27414e-12
1.43337e-11
-4.05611e-12
1.58941e-11
-2.67649e-12
1.74073e-11
-1.12801e-12
1.88905e-11
5.96022e-13
2.03235e-11
2.60713e-12
2.15769e-11
5.06953e-12
2.23711e-11
8.11405e-12
2.23296e-11
1.17843e-11
2.10695e-11
1.59123e-11
1.79536e-11
1.97969e-11
1.30675e-11
2.16737e-11
6.8243e-12
1.96328e-11
2.03062e-12
1.43406e-11
2.17732e-12
1.43371e-12
-1.82299e-11
2.43248e-12
-1.55676e-11
3.28627e-12
-1.26284e-11
4.1876e-12
-1.17024e-11
5.29407e-12
-1.15093e-11
6.71163e-12
-1.15862e-11
8.47517e-12
-1.16637e-11
1.05521e-11
-1.15015e-11
1.28581e-11
-1.07071e-11
1.52944e-11
-8.77405e-12
1.78755e-11
-7.8552e-12
2.04709e-11
-6.65148e-12
2.2956e-11
-5.16161e-12
2.52429e-11
-3.41493e-12
2.74053e-11
-1.56639e-12
2.92806e-11
7.31936e-13
3.07375e-11
3.61256e-12
3.16214e-11
7.23016e-12
3.16009e-11
1.18049e-11
3.00605e-11
1.74526e-11
2.6288e-11
2.35694e-11
1.99607e-11
2.8001e-11
1.21176e-11
2.74759e-11
3.85476e-12
2.26035e-11
6.03209e-12
1.33908e-12
-1.95691e-11
2.40108e-12
-1.66296e-11
3.44533e-12
-1.36727e-11
4.67066e-12
-1.29278e-11
6.25668e-12
-1.30954e-11
8.31567e-12
-1.36452e-11
1.08755e-11
-1.42235e-11
1.388e-11
-1.4506e-11
1.72301e-11
-1.40572e-11
2.10428e-11
-1.25868e-11
2.51006e-11
-1.19129e-11
2.9328e-11
-1.08788e-11
3.36351e-11
-9.46875e-12
3.77008e-11
-7.48059e-12
4.09188e-11
-4.78429e-12
4.3298e-11
-1.64723e-12
4.47931e-11
2.11743e-12
4.53444e-11
6.6789e-12
4.47549e-11
1.23944e-11
4.25927e-11
1.96148e-11
3.80325e-11
2.81296e-11
3.00422e-11
3.59913e-11
1.90596e-11
3.84585e-11
7.39642e-12
3.42666e-11
1.34285e-11
1.22537e-12
-2.07944e-11
2.39325e-12
-1.77975e-11
3.70928e-12
-1.49887e-11
5.38238e-12
-1.46009e-11
7.61535e-12
-1.53283e-11
1.04981e-11
-1.6528e-11
1.40669e-11
-1.77923e-11
1.82172e-11
-1.86564e-11
2.28194e-11
-1.86593e-11
2.83268e-11
-1.80942e-11
3.44847e-11
-1.80708e-11
4.08603e-11
-1.72544e-11
4.69945e-11
-1.56029e-11
5.26611e-11
-1.31472e-11
5.76502e-11
-9.77335e-12
6.14866e-11
-5.48358e-12
6.37812e-11
-1.77209e-13
6.45067e-11
5.95351e-12
6.36109e-11
1.32902e-11
6.07819e-11
2.24439e-11
5.5199e-11
3.37125e-11
4.5405e-11
4.57854e-11
3.05474e-11
5.33162e-11
1.28939e-11
5.19202e-11
2.63224e-11
1.04378e-12
-2.18382e-11
2.29752e-12
-1.90512e-11
3.94618e-12
-1.66372e-11
6.10363e-12
-1.67583e-11
8.92553e-12
-1.81502e-11
1.27454e-11
-2.03478e-11
1.75637e-11
-2.26105e-11
2.33143e-11
-2.4407e-11
2.94404e-11
-2.47853e-11
3.69057e-11
-2.55594e-11
4.4631e-11
-2.57961e-11
5.26291e-11
-2.52525e-11
6.07601e-11
-2.37338e-11
6.86348e-11
-2.10218e-11
7.60779e-11
-1.72165e-11
8.28069e-11
-1.22125e-11
8.83914e-11
-5.76168e-12
9.16705e-11
2.67446e-12
9.15648e-11
1.33959e-11
8.87523e-11
2.52564e-11
8.23826e-11
4.00822e-11
7.08028e-11
5.73653e-11
5.14631e-11
7.26559e-11
2.34756e-11
7.99077e-11
4.9798e-11
9.11188e-13
-2.27492e-11
2.35747e-12
-2.04973e-11
4.40999e-12
-1.86896e-11
7.3426e-12
-1.96907e-11
1.14863e-11
-2.22938e-11
1.66814e-11
-2.55429e-11
2.28588e-11
-2.87879e-11
2.96206e-11
-3.11688e-11
3.79571e-11
-3.31218e-11
4.72108e-11
-3.48131e-11
5.7093e-11
-3.56783e-11
6.72746e-11
-3.5434e-11
7.75869e-11
-3.40461e-11
8.80344e-11
-3.14693e-11
9.81546e-11
-2.73367e-11
1.07553e-10
-2.16105e-11
1.16097e-10
-1.43058e-11
1.23805e-10
-5.03414e-12
1.30165e-10
7.0362e-12
1.31286e-10
2.41359e-11
1.26944e-10
4.44235e-11
1.14818e-10
6.94916e-11
9.12058e-11
9.6268e-11
4.68266e-11
1.24287e-10
9.66246e-11
8.73122e-13
-2.36221e-11
2.76049e-12
-2.23844e-11
5.60706e-12
-2.1536e-11
9.50907e-12
-2.35926e-11
1.46058e-11
-2.73904e-11
2.09738e-11
-3.1911e-11
2.83605e-11
-3.61746e-11
3.72595e-11
-4.00679e-11
4.76136e-11
-4.3476e-11
5.88846e-11
-4.60842e-11
7.10146e-11
-4.78084e-11
8.35514e-11
-4.79709e-11
9.64323e-11
-4.69269e-11
1.09258e-10
-4.42948e-11
1.21971e-10
-4.00501e-11
1.34429e-10
-3.40681e-11
1.46524e-10
-2.64006e-11
1.58261e-10
-1.67715e-11
1.69898e-10
-4.60105e-12
1.8255e-10
1.14843e-11
1.91093e-10
3.58802e-11
1.88329e-10
7.22553e-11
1.67724e-10
1.16873e-10
1.08214e-10
1.83797e-10
2.04838e-10
9.96064e-13
-2.4618e-11
3.34795e-12
-2.4736e-11
6.87835e-12
-2.50661e-11
1.17563e-11
-2.84703e-11
1.81531e-11
-3.37872e-11
2.56849e-11
-3.94428e-11
3.51231e-11
-4.56128e-11
4.62107e-11
-5.11555e-11
5.85974e-11
-5.58628e-11
7.21513e-11
-5.96381e-11
8.64688e-11
-6.21261e-11
1.01598e-10
-6.31006e-11
1.17182e-10
-6.25103e-11
1.33141e-10
-6.02541e-11
1.49089e-10
-5.59982e-11
1.64159e-10
-4.91383e-11
1.79773e-10
-4.20143e-11
1.96071e-10
-3.30695e-11
2.1344e-10
-2.197e-11
2.32544e-10
-7.6203e-12
2.58122e-10
1.03021e-11
2.9335e-10
3.70273e-11
3.24271e-10
8.59528e-11
3.04988e-10
2.0308e-10
5.09826e-10
7.2541e-13
-2.53431e-11
3.16191e-12
-2.71723e-11
6.86275e-12
-2.87668e-11
1.17446e-11
-3.3352e-11
1.7778e-11
-3.98206e-11
2.54627e-11
-4.71275e-11
3.44226e-11
-5.45728e-11
4.47672e-11
-6.15003e-11
5.6474e-11
-6.75698e-11
6.93318e-11
-7.2496e-11
8.32564e-11
-7.60509e-11
9.8195e-11
-7.80394e-11
1.14024e-10
-7.83397e-11
1.30613e-10
-7.68431e-11
1.48035e-10
-7.34199e-11
1.66999e-10
-6.81027e-11
1.86488e-10
-6.15031e-11
2.06681e-10
-5.32624e-11
2.27448e-10
-4.2738e-11
2.5062e-10
-3.07918e-11
2.77232e-10
-1.63103e-11
3.06443e-10
7.81641e-12
3.44873e-10
4.75229e-11
4.57928e-10
9.00256e-11
1.26069e-10
8.41685e-10
8.3909e-13
-2.61819e-11
3.66787e-12
-3.00008e-11
8.00588e-12
-3.31045e-11
1.37622e-11
-3.91083e-11
2.10123e-11
-4.70707e-11
2.98543e-11
-5.59695e-11
4.02346e-11
-6.49532e-11
5.21438e-11
-7.34097e-11
6.54992e-11
-8.09255e-11
8.0213e-11
-8.72101e-11
9.62053e-11
-9.20433e-11
1.13406e-10
-9.524e-11
1.31738e-10
-9.66723e-11
1.51142e-10
-9.62471e-11
1.71647e-10
-9.39249e-11
1.93338e-10
-8.97937e-11
2.1592e-10
-8.40852e-11
2.39494e-10
-7.6837e-11
2.64729e-10
-6.79735e-11
2.91096e-10
-5.71586e-11
3.18028e-10
-4.3242e-11
3.471e-10
-2.12557e-11
3.80545e-10
1.40776e-11
4.1086e-10
5.97105e-11
1.15507e-10
4.21422e-10
9.56169e-13
-2.71378e-11
4.1601e-12
-3.32044e-11
9.11199e-12
-3.80562e-11
1.57128e-11
-4.57089e-11
2.39948e-11
-5.53527e-11
3.39882e-11
-6.5963e-11
4.56836e-11
-7.66488e-11
5.90395e-11
-8.67658e-11
7.39952e-11
-9.58815e-11
9.04848e-11
-1.037e-10
1.08438e-10
-1.09997e-10
1.27794e-10
-1.14596e-10
1.48491e-10
-1.1737e-10
1.70477e-10
-1.18233e-10
1.93707e-10
-1.17156e-10
2.18093e-10
-1.14179e-10
2.43411e-10
-1.09403e-10
2.69404e-10
-1.0283e-10
2.95684e-10
-9.42543e-11
3.21513e-10
-8.29871e-11
3.45383e-10
-6.7112e-11
3.66438e-10
-4.2311e-11
3.82136e-10
-1.62012e-12
3.82573e-10
5.92734e-11
1.54193e-10
3.43887e-10
1.06709e-12
-2.82047e-11
4.61037e-12
-3.67474e-11
1.01213e-11
-4.3567e-11
1.74787e-11
-5.30662e-11
2.66852e-11
-6.45592e-11
3.77484e-11
-7.70263e-11
5.06463e-11
-8.95469e-11
6.53364e-11
-1.01456e-10
8.17661e-11
-1.12311e-10
9.98747e-11
-1.21809e-10
1.196e-10
-1.29723e-10
1.40885e-10
-1.35881e-10
1.63665e-10
-1.4015e-10
1.87867e-10
-1.42436e-10
2.13389e-10
-1.42678e-10
2.40049e-10
-1.4084e-10
2.67517e-10
-1.36871e-10
2.95273e-10
-1.30586e-10
3.22503e-10
-1.21484e-10
3.47947e-10
-1.08432e-10
3.69855e-10
-8.90201e-11
3.86229e-10
-5.86851e-11
3.94645e-10
-1.00356e-11
3.89263e-10
6.46553e-11
1.80843e-10
3.62613e-10
1.1602e-12
-2.93646e-11
4.99429e-12
-4.05813e-11
1.0993e-11
-4.95656e-11
1.90146e-11
-6.10876e-11
2.90378e-11
-7.45825e-11
4.10499e-11
-8.90385e-11
5.50188e-11
-1.03516e-10
7.08977e-11
-1.17335e-10
8.86315e-11
-1.30045e-10
1.0816e-10
-1.41338e-10
1.29424e-10
-1.50987e-10
1.52362e-10
-1.58818e-10
1.76899e-10
-1.64687e-10
2.02938e-10
-1.68475e-10
2.30329e-10
-1.70069e-10
2.58827e-10
-1.69338e-10
2.88032e-10
-1.66076e-10
3.17322e-10
-1.59877e-10
3.4578e-10
-1.49942e-10
3.72103e-10
-1.34754e-10
3.94684e-10
-1.11601e-10
4.11894e-10
-7.58954e-11
4.22708e-10
-2.08493e-11
4.2576e-10
6.1603e-11
1.83013e-10
4.23589e-10
1.23217e-12
-3.05965e-11
5.30712e-12
-4.46559e-11
1.17208e-11
-5.59791e-11
2.03136e-11
-6.96802e-11
3.10434e-11
-8.53123e-11
4.38794e-11
-1.01875e-10
5.8778e-11
-1.18415e-10
7.56849e-11
-1.34243e-10
9.45401e-11
-1.48901e-10
1.15282e-10
-1.6208e-10
1.37847e-10
-1.73553e-10
1.62166e-10
-1.83138e-10
1.88155e-10
-1.90677e-10
2.15695e-10
-1.96015e-10
2.4461e-10
-1.98984e-10
2.7463e-10
-1.99358e-10
3.05344e-10
-1.9679e-10
3.36158e-10
-1.90691e-10
3.66256e-10
-1.80039e-10
3.9461e-10
-1.63109e-10
4.20125e-10
-1.37115e-10
4.42064e-10
-9.78343e-11
4.60666e-10
-3.94514e-11
4.77601e-10
4.4668e-11
1.62131e-10
4.98484e-10
1.28248e-12
-3.18787e-11
5.54851e-12
-4.89217e-11
1.23051e-11
-6.27355e-11
2.13772e-11
-7.87522e-11
3.27035e-11
-9.66386e-11
4.62365e-11
-1.15408e-10
6.19207e-11
-1.34099e-10
7.96932e-11
-1.52015e-10
9.94886e-11
-1.68697e-10
1.21241e-10
-1.83833e-10
1.44882e-10
-1.97194e-10
1.70336e-10
-2.08593e-10
1.9751e-10
-2.1785e-10
2.26275e-10
-2.24781e-10
2.56451e-10
-2.2916e-10
2.87776e-10
-2.30683e-10
3.19884e-10
-2.28898e-10
3.52285e-10
-2.23092e-10
3.84379e-10
-2.12134e-10
4.15528e-10
-1.94258e-10
4.45252e-10
-1.66839e-10
4.73629e-10
-1.26212e-10
5.01913e-10
-6.77356e-11
5.33024e-10
1.35578e-11
1.22287e-10
5.72867e-10
1.31185e-12
-3.31902e-11
5.72173e-12
-5.33312e-11
1.27519e-11
-6.97653e-11
2.22144e-11
-8.82145e-11
3.40303e-11
-1.08455e-10
4.81368e-11
-1.29514e-10
6.4467e-11
-1.5043e-10
8.29502e-11
-1.70499e-10
1.03515e-10
-1.89262e-10
1.26091e-10
-2.06409e-10
1.50606e-10
-2.21709e-10
1.76979e-10
-2.34966e-10
2.05115e-10
-2.45986e-10
2.34887e-10
-2.54553e-10
2.66129e-10
-2.60402e-10
2.98616e-10
-2.6317e-10
3.3206e-10
-2.62342e-10
3.66116e-10
-2.57149e-10
4.00431e-10
-2.46448e-10
4.34747e-10
-2.28574e-10
4.69115e-10
-2.01206e-10
5.0423e-10
-1.61328e-10
5.419e-10
-1.05406e-10
5.85393e-10
-2.99348e-11
6.77254e-11
6.39955e-10
1.32239e-12
-3.45123e-11
5.83229e-12
-5.78407e-11
1.30712e-11
-7.7004e-11
2.28408e-11
-9.7984e-11
3.5046e-11
-1.2066e-10
4.96103e-11
-1.44079e-10
6.6457e-11
-1.67277e-10
8.55085e-11
-1.89551e-10
1.06689e-10
-2.10442e-10
1.29923e-10
-2.29643e-10
1.55136e-10
-2.46923e-10
1.82247e-10
-2.62078e-10
2.11164e-10
-2.74903e-10
2.41775e-10
-2.85165e-10
2.7394e-10
-2.92568e-10
3.07491e-10
-2.96721e-10
3.42231e-10
-2.97082e-10
3.77969e-10
-2.92887e-10
4.1458e-10
-2.83059e-10
4.52121e-10
-2.66116e-10
4.91027e-10
-2.40112e-10
5.32368e-10
-2.02669e-10
5.78164e-10
-1.51202e-10
6.31592e-10
-8.33632e-11
2.24473e-12
6.97073e-10
1.31654e-12
-3.58285e-11
5.88759e-12
-6.24114e-11
1.32767e-11
-8.43928e-11
2.32771e-11
-1.07984e-10
3.578e-11
-1.33163e-10
5.0697e-11
-1.58996e-10
6.79435e-11
-1.84523e-10
8.74366e-11
-2.09044e-10
1.09096e-10
-2.32102e-10
1.32844e-10
-2.53392e-10
1.58606e-10
-2.72685e-10
1.86305e-10
-2.89777e-10
2.15858e-10
-3.04457e-10
2.47176e-10
-3.16482e-10
2.80155e-10
-3.25547e-10
3.14688e-10
-3.31254e-10
3.50675e-10
-3.33069e-10
3.88062e-10
-3.30275e-10
4.26912e-10
-3.21909e-10
4.67511e-10
-3.06715e-10
5.1053e-10
-2.83131e-10
5.57218e-10
-2.49357e-10
6.09585e-10
-2.03569e-10
6.70515e-10
-1.44294e-10
-7.09016e-11
7.43662e-10
1.2975e-12
-3.71256e-11
5.89585e-12
-6.70094e-11
1.33833e-11
-9.18799e-11
2.35469e-11
-1.18148e-10
3.62658e-11
-1.45881e-10
5.14425e-11
-1.74173e-10
6.89858e-11
-2.02067e-10
8.88086e-11
-2.28867e-10
1.10828e-10
-2.54122e-10
1.34967e-10
-2.77531e-10
1.61152e-10
-2.9887e-10
1.89314e-10
-3.17939e-10
2.19385e-10
-3.34529e-10
2.51301e-10
-3.48398e-10
2.84998e-10
-3.59245e-10
3.20432e-10
-3.66687e-10
3.57588e-10
-3.70225e-10
3.96528e-10
-3.69215e-10
4.37452e-10
-3.62834e-10
4.80795e-10
-3.50058e-10
5.27348e-10
-3.29683e-10
5.78391e-10
-3.00401e-10
6.35805e-10
-2.60982e-10
7.02086e-10
-2.10575e-10
-1.49067e-10
7.80252e-10
1.26803e-12
-3.83932e-11
5.86565e-12
-7.16065e-11
1.34068e-11
-9.94207e-11
2.36744e-11
-1.28415e-10
3.65383e-11
-1.58745e-10
5.18928e-11
-1.89527e-10
6.96425e-11
-2.19817e-10
8.96973e-11
-2.48922e-10
1.11974e-10
-2.76399e-10
1.36396e-10
-3.01954e-10
1.62896e-10
-3.25371e-10
1.91415e-10
-3.46457e-10
2.21901e-10
-3.65015e-10
2.54316e-10
-3.80813e-10
2.88638e-10
-3.93568e-10
3.24875e-10
-4.02925e-10
3.63087e-10
-4.08438e-10
4.03424e-10
-4.09552e-10
4.4618e-10
-4.05589e-10
4.91867e-10
-3.95746e-10
5.41313e-10
-3.79129e-10
5.95743e-10
-3.54831e-10
6.5684e-10
-3.22079e-10
7.2672e-10
-2.80455e-10
-2.30166e-10
8.07819e-10
1.23122e-12
-3.9624e-11
5.80489e-12
-7.61798e-11
1.33619e-11
-1.06977e-10
2.36829e-11
-1.38736e-10
3.66297e-11
-1.71692e-10
5.20909e-11
-2.04989e-10
6.99675e-11
-2.37693e-10
9.01684e-11
-2.69124e-10
1.12611e-10
-2.98842e-10
1.37223e-10
-3.26566e-10
1.63942e-10
-3.5209e-10
1.92721e-10
-3.75236e-10
2.23526e-10
-3.95821e-10
2.56343e-10
-4.13631e-10
2.91187e-10
-4.28411e-10
3.2811e-10
-4.39848e-10
3.6723e-10
-4.47558e-10
4.08756e-10
-4.51079e-10
4.53039e-10
-4.49872e-10
5.00624e-10
-4.43331e-10
5.52317e-10
-4.30822e-10
6.09239e-10
-4.11753e-10
6.7285e-10
-3.8569e-10
7.44915e-10
-3.5252e-10
-3.12636e-10
8.27385e-10
1.18932e-12
-4.08128e-11
5.72075e-12
-8.07107e-11
1.3262e-11
-1.14518e-10
2.35928e-11
-1.49066e-10
3.65689e-11
-1.84668e-10
5.20742e-11
-2.20494e-10
7.00074e-11
-2.55627e-10
9.02777e-11
-2.89394e-10
1.12805e-10
-3.21369e-10
1.3752e-10
-3.51282e-10
1.64371e-10
-3.78941e-10
1.93319e-10
-4.04185e-10
2.24347e-10
-4.26849e-10
2.57465e-10
-4.46748e-10
2.92713e-10
-4.6366e-10
3.30182e-10
-4.77317e-10
3.70026e-10
-4.87403e-10
4.12495e-10
-4.93547e-10
4.57962e-10
-4.9534e-10
5.06973e-10
-4.92342e-10
5.60281e-10
-4.8413e-10
6.1888e-10
-4.70352e-10
6.84013e-10
-4.50823e-10
7.57127e-10
-4.25634e-10
-3.95288e-10
8.39778e-10
1.14457e-12
-4.19569e-11
5.61903e-12
-8.51847e-11
1.3118e-11
-1.22017e-10
2.34213e-11
-1.59369e-10
3.63795e-11
-1.97626e-10
5.18734e-11
-2.35988e-10
6.98002e-11
-2.73554e-10
9.00702e-11
-3.09665e-10
1.12606e-10
-3.43906e-10
1.37346e-10
-3.76022e-10
1.64242e-10
-4.05838e-10
1.93268e-10
-4.33212e-10
2.24422e-10
-4.58003e-10
2.57727e-10
-4.80055e-10
2.9325e-10
-4.99182e-10
3.31101e-10
-5.15169e-10
3.71461e-10
-5.27762e-10
4.14595e-10
-5.36682e-10
4.60882e-10
-5.41627e-10
5.1084e-10
-5.42301e-10
5.65155e-10
-5.38444e-10
6.24691e-10
-5.29888e-10
6.90488e-10
-5.1662e-10
7.63721e-10
-4.98868e-10
-4.77186e-10
8.45619e-10
1.09837e-12
-4.30548e-11
5.50452e-12
-8.95903e-11
1.29387e-11
-1.29451e-10
2.31818e-11
-1.69612e-10
3.60807e-11
-2.10525e-10
5.15127e-11
-2.5142e-10
6.93753e-11
-2.91417e-10
8.95805e-11
-3.2987e-10
1.12055e-10
-3.66381e-10
1.36741e-10
-4.00708e-10
1.63598e-10
-4.32696e-10
1.9261e-10
-4.62224e-10
2.23783e-10
-4.89176e-10
2.57156e-10
-5.13428e-10
2.92806e-10
-5.34832e-10
3.30859e-10
-5.53223e-10
3.71506e-10
-5.68409e-10
4.15013e-10
-5.80189e-10
4.61745e-10
-5.88359e-10
5.12181e-10
-5.92737e-10
5.66928e-10
-5.93191e-10
6.26726e-10
-5.89686e-10
6.92435e-10
-5.82329e-10
7.64999e-10
-5.71432e-10
-5.5757e-10
8.45382e-10
1.05212e-12
-4.41064e-11
5.38059e-12
-9.39182e-11
1.27307e-11
-1.368e-10
2.28848e-11
-1.79766e-10
3.56861e-11
-2.23326e-10
5.10104e-11
-2.66744e-10
6.87548e-11
-3.09161e-10
8.88339e-11
-3.4995e-10
1.11178e-10
-3.88725e-10
1.35734e-10
-4.25264e-10
1.62468e-10
-4.5943e-10
1.91368e-10
-4.91125e-10
2.2245e-10
-5.20258e-10
2.55759e-10
-5.46737e-10
2.9138e-10
-5.70453e-10
3.29443e-10
-5.91286e-10
3.70137e-10
-6.09103e-10
4.13719e-10
-6.23771e-10
4.60526e-10
-6.35166e-10
5.10988e-10
-6.43199e-10
5.65633e-10
-6.47836e-10
6.25083e-10
-6.49136e-10
6.90042e-10
-6.47287e-10
7.61259e-10
-6.42649e-10
-6.35793e-10
8.39482e-10
1.00639e-12
-4.51123e-11
5.24976e-12
-9.8161e-11
1.24986e-11
-1.44049e-10
2.25372e-11
-1.89804e-10
3.52063e-11
-2.35995e-10
5.03795e-11
-2.81917e-10
6.79549e-11
-3.26737e-10
8.78491e-11
-3.69844e-10
1.09996e-10
-4.10872e-10
1.34345e-10
-4.49614e-10
1.60869e-10
-4.85954e-10
1.89559e-10
-5.19815e-10
2.20434e-10
-5.51134e-10
2.53543e-10
-5.79846e-10
2.88971e-10
-6.05881e-10
3.26845e-10
-6.2916e-10
3.67343e-10
-6.49602e-10
4.10704e-10
-6.67132e-10
4.5723e-10
-6.81693e-10
5.07297e-10
-6.93266e-10
5.61352e-10
-7.01892e-10
6.1991e-10
-7.07695e-10
6.83538e-10
-7.10915e-10
7.52823e-10
-7.11934e-10
-7.11305e-10
8.28335e-10
9.61889e-13
-4.60736e-11
5.11344e-12
-1.02312e-10
1.22455e-11
-1.5118e-10
2.21444e-11
-1.99703e-10
3.46483e-11
-2.48499e-10
4.96298e-11
-2.96899e-10
6.69873e-11
-3.44095e-10
8.66396e-11
-3.89497e-10
1.08523e-10
-4.32756e-10
1.32591e-10
-4.73683e-10
1.58817e-10
-5.12181e-10
1.87196e-10
-5.48194e-10
2.17746e-10
-5.81684e-10
2.50515e-10
-6.12615e-10
2.85583e-10
-6.40949e-10
3.23068e-10
-6.66646e-10
3.63134e-10
-6.89668e-10
4.05989e-10
-7.09988e-10
4.519e-10
-7.27603e-10
5.01183e-10
-7.4255e-10
5.54212e-10
-7.5492e-10
6.11401e-10
-7.64884e-10
6.73198e-10
-7.72711e-10
7.40051e-10
-7.78788e-10
-7.83639e-10
8.12385e-10
9.1858e-13
-4.69916e-11
4.9726e-12
-1.06365e-10
1.19734e-11
-1.5818e-10
2.17095e-11
-2.09439e-10
3.40174e-11
-2.60806e-10
4.87682e-11
-3.1165e-10
6.58611e-11
-3.61188e-10
8.52163e-11
-4.08852e-10
1.06772e-10
-4.54312e-10
1.30484e-10
-4.97395e-10
1.56326e-10
-5.38023e-10
1.84292e-10
-5.7616e-10
2.14398e-10
-6.11791e-10
2.46688e-10
-6.44906e-10
2.81233e-10
-6.75494e-10
3.18137e-10
-7.0355e-10
3.57541e-10
-7.29072e-10
3.99626e-10
-7.52073e-10
4.44615e-10
-7.72591e-10
4.92768e-10
-7.90704e-10
5.44386e-10
-8.06538e-10
5.99796e-10
-8.20294e-10
6.59337e-10
-8.32252e-10
7.23343e-10
-8.42794e-10
-8.52409e-10
7.92114e-10
8.76759e-13
-4.78677e-11
4.82756e-12
-1.10315e-10
1.16834e-11
-1.65036e-10
2.12351e-11
-2.1899e-10
3.33173e-11
-2.72888e-10
4.78005e-11
-3.26133e-10
6.4584e-11
-3.77971e-10
8.3589e-11
-4.27858e-10
1.04755e-10
-4.75478e-10
1.28038e-10
-5.20679e-10
1.53411e-10
-5.63396e-10
1.80865e-10
-6.03615e-10
2.10413e-10
-6.4134e-10
2.4209e-10
-6.76582e-10
2.75954e-10
-7.09359e-10
3.12094e-10
-7.3969e-10
3.50626e-10
-7.67604e-10
3.91698e-10
-7.93146e-10
4.3549e-10
-8.16384e-10
4.8221e-10
-8.37423e-10
5.32089e-10
-8.56417e-10
5.85374e-10
-8.73578e-10
6.42311e-10
-8.8919e-10
7.03134e-10
-9.03617e-10
-9.17311e-10
7.68036e-10
8.36109e-13
-4.87032e-11
4.67862e-12
-1.14157e-10
1.13764e-11
-1.71733e-10
2.07229e-11
-2.28336e-10
3.25518e-11
-2.84717e-10
4.67321e-11
-3.40313e-10
6.31635e-11
-3.94403e-10
8.17678e-11
-4.46462e-10
1.02484e-10
-4.96195e-10
1.25269e-10
-5.43463e-10
1.50092e-10
-5.8822e-10
1.76941e-10
-6.30465e-10
2.05821e-10
-6.7022e-10
2.36757e-10
-7.07519e-10
2.69795e-10
-7.42397e-10
3.05003e-10
-7.74898e-10
3.42471e-10
-8.05073e-10
3.82316e-10
-8.32991e-10
4.24675e-10
-8.58742e-10
4.69702e-10
-8.82451e-10
5.17569e-10
-9.04284e-10
5.68448e-10
-9.24457e-10
6.22506e-10
-9.43248e-10
6.79887e-10
-9.60999e-10
-9.7812e-10
7.40696e-10
7.96757e-13
-4.94993e-11
4.52578e-12
-1.17886e-10
1.10531e-11
-1.7826e-10
2.01751e-11
-2.37458e-10
3.17241e-11
-2.96266e-10
4.55688e-11
-3.54158e-10
6.16082e-11
-4.10443e-10
7.97642e-11
-4.64619e-10
9.99757e-11
-5.16407e-10
1.22196e-10
-5.65684e-10
1.46394e-10
-6.12418e-10
1.72549e-10
-6.56621e-10
2.00661e-10
-6.98332e-10
2.30741e-10
-7.37599e-10
2.62821e-10
-7.74477e-10
2.96947e-10
-8.09024e-10
3.33185e-10
-8.41312e-10
3.71618e-10
-8.71424e-10
4.12342e-10
-8.99466e-10
4.55464e-10
-9.25574e-10
5.01099e-10
-9.49918e-10
5.49355e-10
-9.72713e-10
6.00327e-10
-9.9422e-10
6.54084e-10
-1.01476e-09
-1.03469e-09
7.10652e-10
7.58309e-13
-5.02569e-11
4.36924e-12
-1.21496e-10
1.07144e-11
-1.84604e-10
1.95936e-11
-2.46337e-10
3.08386e-11
-3.07511e-10
4.43169e-11
-3.67636e-10
5.99275e-11
-4.26053e-10
7.75915e-11
-4.82283e-10
9.72466e-11
-5.36063e-10
1.18844e-10
-5.87282e-10
1.42347e-10
-6.35921e-10
1.6773e-10
-6.82005e-10
1.94982e-10
-7.25585e-10
2.24104e-10
-7.66721e-10
2.55109e-10
-8.05482e-10
2.88024e-10
-8.4194e-10
3.2289e-10
-8.76178e-10
3.59758e-10
-9.08291e-10
3.98685e-10
-9.38394e-10
4.39736e-10
-9.66626e-10
4.82973e-10
-9.93155e-10
5.28448e-10
-1.01819e-09
5.76195e-10
-1.04197e-09
6.26216e-10
-1.06478e-09
-1.08694e-09
6.78472e-10
7.20876e-13
-5.09771e-11
4.20909e-12
-1.24983e-10
1.03615e-11
-1.90756e-10
1.89812e-11
-2.54956e-10
2.98998e-11
-3.18429e-10
4.29843e-11
-3.80721e-10
5.81327e-11
-4.41202e-10
7.52654e-11
-4.99416e-10
9.43183e-11
-5.55116e-10
1.15239e-10
-6.08203e-10
1.37986e-10
-6.58668e-10
1.62527e-10
-7.06547e-10
1.88841e-10
-7.51899e-10
2.16916e-10
-7.94796e-10
2.46748e-10
-8.35315e-10
2.78347e-10
-8.73538e-10
3.11725e-10
-9.09557e-10
3.46906e-10
-9.43472e-10
3.83913e-10
-9.75401e-10
4.22769e-10
-1.00548e-09
4.63493e-10
-1.03388e-09
5.06086e-10
-1.06078e-09
5.50528e-10
-1.08641e-09
5.96769e-10
-1.11102e-09
-1.13489e-09
6.44711e-10
6.84091e-13
-5.16605e-11
4.04573e-12
-1.28344e-10
9.99561e-12
-1.96705e-10
1.83409e-11
-2.63301e-10
2.89134e-11
-3.29001e-10
4.15795e-11
-3.93387e-10
5.62366e-11
-4.55859e-10
7.28037e-11
-5.15983e-10
9.12143e-11
-5.73527e-10
1.11413e-10
-6.28402e-10
1.33352e-10
-6.80607e-10
1.56992e-10
-7.30187e-10
1.82301e-10
-7.77209e-10
2.09256e-10
-8.21751e-10
2.37838e-10
-8.63897e-10
2.68034e-10
-9.03735e-10
2.99836e-10
-9.4136e-10
3.3324e-10
-9.76876e-10
3.68238e-10
-1.0104e-09
4.04819e-10
-1.04206e-09
4.4296e-10
-1.07202e-09
4.82621e-10
-1.10044e-09
5.23739e-10
-1.12753e-09
5.66214e-10
-1.15349e-09
-1.17858e-09
6.09905e-10
6.4811e-13
-5.23079e-11
3.8795e-12
-1.31575e-10
9.61844e-12
-2.02444e-10
1.76764e-11
-2.71358e-10
2.78856e-11
-3.3921e-10
4.01126e-11
-4.05614e-10
5.42535e-11
-4.7e-10
7.0226e-11
-5.31956e-10
8.79611e-11
-5.91263e-10
1.07399e-10
-6.47841e-10
1.28487e-10
-7.01696e-10
1.51178e-10
-7.52879e-10
1.75431e-10
-8.01462e-10
2.01209e-10
-8.47529e-10
2.28479e-10
-8.91167e-10
2.5721e-10
-9.32466e-10
2.87374e-10
-9.71524e-10
3.18941e-10
-1.00844e-09
3.51876e-10
-1.04333e-09
3.86138e-10
-1.07632e-09
4.21669e-10
-1.10755e-09
4.58396e-10
-1.13717e-09
4.96217e-10
-1.16535e-09
5.34996e-10
-1.19227e-09
-1.21813e-09
5.74554e-10
6.12655e-13
-5.29198e-11
3.71109e-12
-1.34672e-10
9.23208e-12
-2.07964e-10
1.69918e-11
-2.79118e-10
2.6824e-11
-3.49042e-10
3.85945e-11
-4.17385e-10
5.21992e-11
-4.83605e-10
6.75539e-11
-5.47311e-10
8.45869e-11
-6.08296e-10
1.03235e-10
-6.66489e-10
1.23438e-10
-7.219e-10
1.45144e-10
-7.74585e-10
1.68301e-10
-8.2462e-10
1.92861e-10
-8.72089e-10
2.18776e-10
-9.17082e-10
2.46001e-10
-9.59691e-10
2.74488e-10
-1.00001e-09
3.04185e-10
-1.03814e-09
3.35035e-10
-1.07418e-09
3.66969e-10
-1.10826e-09
3.99903e-10
-1.14049e-09
4.33733e-10
-1.171e-09
4.68328e-10
-1.19994e-09
5.03524e-10
-1.22747e-09
-1.25373e-09
5.39115e-10
5.77973e-13
-5.3497e-11