/*--------------------------------*- C++ -*----------------------------------*\
  =========                 |
  \\      /  F ield         | OpenFOAM: The Open Source CFD Toolbox
   \\    /   O peration     | Website:  https://openfoam.org
    \\  /    A nd           | Version:  13
     \\/     M anipulation  |
\*---------------------------------------------------------------------------*/
FoamFile
{
    format      ascii;
    class       surfaceScalarField;
    location    "24";
    object      phi;
}
// * * * * * * * * * * * * * * * * * * * * * * * * * * * * * * * * * * * * * //

dimensions      [0 3 -1 0 0 0 0];

internalField   nonuniform List<scalar> 
12590
(
-3.94623e-08
4.22516e-08
-1.20189e-08
-2.33736e-08
1.22288e-07
-1.33551e-07
3.13198e-07
-1.89209e-07
5.14793e-07
-2.01594e-07
7.05162e-07
-1.89091e-07
8.68204e-07
-1.63246e-07
1.0016e-06
-1.32176e-07
1.1006e-06
-9.92641e-08
1.16647e-06
-6.46812e-08
1.19482e-06
-2.84602e-08
1.18717e-06
8.60672e-09
1.13955e-06
4.77638e-08
1.04979e-06
8.99749e-08
9.18673e-07
1.3137e-07
7.48129e-07
1.70154e-07
5.44991e-07
2.03458e-07
3.25456e-07
2.19582e-07
1.23724e-07
2.02794e-07
-1.9924e-08
1.46e-07
-8.88606e-08
7.19377e-08
-1.01232e-07
1.64392e-08
-7.80123e-08
-1.88237e-08
-2.88643e-08
-4.28495e-08
-2.70131e-08
2.53827e-08
2.05547e-08
1.71042e-07
-1.67157e-07
3.67109e-07
-3.2876e-07
5.68613e-07
-3.89765e-07
7.54725e-07
-3.8717e-07
9.21064e-07
-3.54579e-07
1.06612e-06
-3.07915e-07
1.18822e-06
-2.53484e-07
1.28303e-06
-1.93773e-07
1.34852e-06
-1.29473e-07
1.38208e-06
-6.16823e-08
1.38042e-06
1.08254e-08
1.34223e-06
8.62895e-08
1.27002e-06
1.62347e-07
1.16337e-06
2.38191e-07
1.02356e-06
3.0991e-07
8.54718e-07
3.72429e-07
6.5675e-07
4.1783e-07
4.30293e-07
4.29845e-07
1.94823e-07
3.82603e-07
3.96888e-09
2.64875e-07
-9.1034e-08
1.14791e-07
-9.32369e-08
-1.0688e-08
-4.9246e-08
-8.21998e-08
-7.45965e-08
1.04183e-07
-8.08847e-08
3.22939e-07
-3.84565e-07
5.27932e-07
-5.32883e-07
7.01911e-07
-5.62812e-07
8.53865e-07
-5.38432e-07
9.90028e-07
-4.89965e-07
1.11013e-06
-4.27471e-07
1.21115e-06
-3.53858e-07
1.28836e-06
-2.70584e-07
1.33857e-06
-1.79104e-07
1.35773e-06
-8.04651e-08
1.34467e-06
2.43752e-08
1.30037e-06
1.30967e-07
1.22731e-06
2.35635e-07
1.12827e-06
3.37491e-07
1.00441e-06
4.33831e-07
8.59505e-07
5.17604e-07
6.97019e-07
5.80658e-07
5.17075e-07
6.10322e-07
3.17262e-07
5.8327e-07
1.14002e-07
4.69367e-07
-3.49555e-08
2.67095e-07
-7.69542e-08
3.43154e-08
-4.74601e-08
-1.06018e-07
-1.20951e-07
1.86225e-07
-2.65342e-07
4.02199e-07
-5.99369e-07
5.6314e-07
-6.93006e-07
6.94946e-07
-6.9365e-07
8.15895e-07
-6.588e-07
9.28538e-07
-6.018e-07
1.02711e-06
-5.25688e-07
1.10605e-06
-4.32186e-07
1.16025e-06
-3.24412e-07
1.18779e-06
-2.06246e-07
1.1888e-06
-8.0964e-08
1.16572e-06
4.79579e-08
1.11932e-06
1.77784e-07
1.04726e-06
3.08003e-07
9.51073e-07
4.33954e-07
8.35758e-07
5.49331e-07
7.07045e-07
6.46589e-07
5.70642e-07
7.17336e-07
4.299e-07
7.51525e-07
2.83475e-07
7.3023e-07
1.31842e-07
6.21888e-07
4.10122e-09
3.95405e-07
-4.11004e-08
8.57193e-08
-2.22439e-08
-1.22106e-07
-1.41965e-07
2.17143e-07
-4.81162e-07
3.71827e-07
-7.53067e-07
4.80439e-07
-8.00716e-07
5.79294e-07
-7.91642e-07
6.7417e-07
-7.52955e-07
7.58989e-07
-6.85878e-07
8.27117e-07
-5.93389e-07
8.74876e-07
-4.78974e-07
8.98746e-07
-3.4814e-07
8.98726e-07
-2.04965e-07
8.72189e-07
-5.43052e-08
8.35919e-07
8.49972e-08
7.90582e-07
2.23441e-07
7.29258e-07
3.69589e-07
6.49493e-07
5.13898e-07
5.53338e-07
6.45506e-07
4.4773e-07
7.52328e-07
3.41108e-07
8.2411e-07
2.38717e-07
8.54203e-07
1.4517e-07
8.24355e-07
6.30002e-08
7.04435e-07
3.8154e-09
4.57302e-07
-7.91214e-09
9.7121e-08
7.10145e-09
-1.31451e-07
-1.34333e-07
1.71966e-07
-6.51898e-07
2.61063e-07
-8.41032e-07
3.26577e-07
-8.65218e-07
3.89212e-07
-8.53355e-07
4.45149e-07
-8.0776e-07
4.8992e-07
-7.30016e-07
5.22866e-07
-6.24672e-07
5.41979e-07
-4.97414e-07
5.49085e-07
-3.52882e-07
5.41773e-07
-1.97873e-07
4.9446e-07
-4.32555e-09
4.42552e-07
1.36889e-07
3.943e-07
2.72439e-07
3.38102e-07
4.25288e-07
2.72542e-07
5.79461e-07
1.98297e-07
7.19303e-07
1.2169e-07
8.28893e-07
5.25301e-08
8.93143e-07
-2.91177e-09
9.09952e-07
-3.94473e-08
8.61181e-07
-4.92578e-08
7.14946e-07
-3.23378e-08
4.39813e-07
1.94937e-08
5.15845e-08
2.17533e-08
-1.33091e-07
-1.11323e-07
9.28342e-08
-7.43407e-07
1.16216e-07
-8.63193e-07
1.29669e-07
-8.77643e-07
1.39973e-07
-8.62281e-07
1.45513e-07
-8.12383e-07
1.47291e-07
-7.29983e-07
1.42983e-07
-6.19041e-07
1.29168e-07
-4.80854e-07
9.37156e-08
-3.16567e-07
3.35188e-08
-1.33338e-07
-9.49541e-09
3.98594e-08
-2.37817e-08
1.52878e-07
-4.86248e-08
2.96747e-07
-8.84645e-08
4.64802e-07
-1.39438e-07
6.29997e-07
-1.93114e-07
7.72541e-07
-2.38936e-07
8.74472e-07
-2.65945e-07
9.20029e-07
-2.70372e-07
9.1451e-07
-2.38754e-07
8.29862e-07
-1.59891e-07
6.36453e-07
-3.89646e-08
3.22012e-07
5.74811e-08
-4.60587e-08
3.86169e-08
-1.0968e-07
-7.23991e-08
2.74257e-09
-7.44795e-07
-4.54539e-08
-8.13448e-07
-9.45473e-08
-8.27623e-07
-1.40841e-07
-8.14675e-07
-1.82881e-07
-7.69585e-07
-2.19017e-07
-6.92473e-07
-2.49949e-07
-5.87119e-07
-2.75004e-07
-4.54229e-07
-2.95324e-07
-2.95134e-07
-3.08473e-07
-1.18984e-07
-3.20804e-07
5.29475e-08
-3.75381e-07
2.08034e-07
-4.44548e-07
3.65967e-07
-5.09228e-07
5.2946e-07
-5.62318e-07
6.82948e-07
-5.95373e-07
8.05391e-07
-6.01772e-07
8.80667e-07
-5.80079e-07
8.98257e-07
-5.15335e-07
8.49682e-07
-3.81227e-07
6.95925e-07
-1.78908e-07
4.34775e-07
4.03757e-08
1.02748e-07
1.12274e-07
-1.10912e-07
7.07688e-08
-6.84217e-08
5.0244e-10
-9.30483e-08
-6.50315e-07
-2.06421e-07
-6.98923e-07
-3.19025e-07
-7.1411e-07
-4.22674e-07
-7.10115e-07
-5.14713e-07
-6.76915e-07
-5.93842e-07
-6.12581e-07
-6.60871e-07
-5.19449e-07
-7.16354e-07
-3.97956e-07
-7.61249e-07
-2.49623e-07
-7.96132e-07
-8.34387e-08
-8.2851e-07
8.59112e-08
-8.71622e-07
2.51637e-07
-9.2143e-07
4.16064e-07
-9.64209e-07
5.72412e-07
-9.86991e-07
7.05778e-07
-9.763e-07
7.94624e-07
-9.25315e-07
8.29529e-07
-8.17743e-07
7.90558e-07
-6.2772e-07
6.59494e-07
-3.69234e-07
4.37792e-07
-1.1264e-07
1.78695e-07
2.89513e-08
-3.42616e-08
9.77307e-09
-9.31318e-08
-3.72894e-09
-4.71277e-08
-2.16477e-09
-1.70772e-07
-4.78226e-07
-3.52018e-07
-5.16326e-07
-5.26685e-07
-5.38793e-07
-6.84919e-07
-5.51234e-07
-8.23102e-07
-5.38363e-07
-9.40884e-07
-4.94309e-07
-1.04035e-06
-4.19636e-07
-1.12247e-06
-3.15315e-07
-1.18884e-06
-1.82819e-07
-1.2414e-06
-3.03672e-08
-1.28483e-06
1.29807e-07
-1.32197e-06
2.89209e-07
-1.349e-06
4.43413e-07
-1.35702e-06
5.80608e-07
-1.3291e-06
6.77988e-07
-1.24552e-06
7.10974e-07
-1.08567e-06
6.69614e-07
-8.42145e-07
5.46873e-07
-5.57642e-07
3.75041e-07
-3.17679e-07
1.98007e-07
-1.76365e-07
3.8695e-08
-1.34255e-07
-7.59822e-08
-1.00693e-07
-1.21956e-07
-4.54674e-08
-1.02138e-07
-4.50708e-08
-2.30712e-07
-2.45738e-07
-4.75211e-07
-2.70992e-07
-6.99017e-07
-3.14529e-07
-8.97732e-07
-3.52271e-07
-1.06879e-06
-3.67245e-07
-1.21376e-06
-3.49164e-07
-1.33585e-06
-2.97438e-07
-1.43599e-06
-2.14844e-07
-1.51473e-06
-1.03837e-07
-1.57304e-06
2.83728e-08
-1.61471e-06
1.71821e-07
-1.63898e-06
3.13837e-07
-1.63488e-06
4.39581e-07
-1.58248e-06
5.28441e-07
-1.46141e-06
5.57033e-07
-1.2537e-06
5.03296e-07
-9.62025e-07
3.77912e-07
-6.60765e-07
2.45612e-07
-4.3778e-07
1.52085e-07
-3.06803e-07
6.77116e-08
-2.34212e-07
-3.35336e-08
-1.8916e-07
-1.18381e-07
-1.43123e-07
-1.69906e-07
-6.51541e-08
-1.75015e-07
-1.10471e-07
-2.86734e-07
4.29106e-08
-5.66322e-07
9.57775e-09
-8.12741e-07
-6.79268e-08
-1.02623e-06
-1.38933e-07
-1.20803e-06
-1.85715e-07
-1.36162e-06
-1.95733e-07
-1.49053e-06
-1.68646e-07
-1.59597e-06
-1.09297e-07
-1.67496e-06
-2.46934e-08
-1.72551e-06
7.9243e-08
-1.74365e-06
1.90294e-07
-1.7238e-06
2.9441e-07
-1.65246e-06
3.68576e-07
-1.50652e-06
3.82881e-07
-1.26594e-06
3.16668e-07
-9.5149e-07
1.89013e-07
-6.55243e-07
8.17808e-08
-4.54148e-07
4.44941e-08
-3.24482e-07
2.28202e-08
-2.23291e-07
-3.34516e-08
-1.54993e-07
-1.00496e-07
-1.25047e-07
-1.49781e-07
-1.00954e-07
-1.89095e-07
-6.09999e-08
-2.17228e-07
-1.69495e-07
-3.02674e-07
3.47618e-07
-5.87671e-07
2.9519e-07
-8.27158e-07
1.71674e-07
-1.02566e-06
5.91222e-08
-1.19138e-06
-2.04625e-08
-1.33006e-06
-5.75283e-08
-1.44404e-06
-5.49204e-08
-1.53481e-06
-1.86129e-08
-1.59817e-06
3.88273e-08
-1.62307e-06
1.04424e-07
-1.59968e-06
1.67456e-07
-1.5166e-06
2.11836e-07
-1.35918e-06
2.11934e-07
-1.12333e-06
1.47549e-07
-8.45977e-07
3.99864e-08
-6.1659e-07
-4.01304e-08
-4.73599e-07
-6.09363e-08
-3.64887e-07
-6.40389e-08
-2.48728e-07
-9.32483e-08
-1.48851e-07
-1.32374e-07
-8.47035e-08
-1.64712e-07
-4.62116e-08
-1.85331e-07
-3.19526e-08
-2.08064e-07
-1.93165e-08
-2.23523e-07
-1.89765e-07
-2.87934e-07
6.36762e-07
-5.24825e-07
5.32919e-07
-7.1025e-07
3.57057e-07
-8.58708e-07
2.07375e-07
-9.84058e-07
1.04142e-07
-1.0881e-06
4.61666e-08
-1.17185e-06
2.82065e-08
-1.23382e-06
4.3492e-08
-1.26986e-06
7.48402e-08
-1.26771e-06
1.02865e-07
-1.21319e-06
1.13626e-07
-1.09789e-06
9.75552e-08
-9.33922e-07
4.91206e-08
-7.64995e-07
-2.02973e-08
-6.36604e-07
-8.74628e-08
-5.40602e-07
-1.35731e-07
-4.37539e-07
-1.63565e-07
-3.21138e-07
-1.8037e-07
-2.12551e-07
-2.00893e-07
-1.27628e-07
-2.16626e-07
-6.14489e-08
-2.29125e-07
-1.55118e-08
-2.33479e-07
1.10471e-08
-2.27087e-07
8.30751e-09
-2.25242e-07
-1.80335e-07
-2.73765e-07
9.11707e-07
-4.79385e-07
7.39025e-07
-6.33192e-07
5.11271e-07
-7.53788e-07
3.27437e-07
-8.51571e-07
2.01945e-07
-9.30293e-07
1.23894e-07
-9.89201e-07
8.72008e-08
-1.02921e-06
8.31562e-08
-1.04412e-06
9.02745e-08
-1.02889e-06
8.82084e-08
-9.83162e-07
6.90934e-08
-9.12939e-07
2.87892e-08
-8.3084e-07
-3.14787e-08
-7.44774e-07
-1.0484e-07
-6.52044e-07
-1.79159e-07
-5.48797e-07
-2.38256e-07
-4.3542e-07
-2.76315e-07
-3.19914e-07
-2.94996e-07
-2.16787e-07
-3.0295e-07
-1.28932e-07
-3.01985e-07
-5.72578e-08
-3.00194e-07
-3.02417e-09
-2.8315e-07
1.76609e-08
-2.53464e-07
2.01583e-08
-2.23081e-07
-1.64793e-07
-2.50481e-07
1.16278e-06
-4.55105e-07
9.44377e-07
-6.11083e-07
6.67198e-07
-7.34999e-07
4.51513e-07
-8.35052e-07
3.01156e-07
-9.14046e-07
2.02177e-07
-9.77118e-07
1.5035e-07
-1.02726e-06
1.33219e-07
-1.0559e-06
1.1979e-07
-1.05193e-06
8.51919e-08
-1.01554e-06
3.42386e-08
-9.53382e-07
-3.14316e-08
-8.72473e-07
-1.10661e-07
-7.78439e-07
-1.96615e-07
-6.77183e-07
-2.79497e-07
-5.68707e-07
-3.44683e-07
-4.56336e-07
-3.88008e-07
-3.43857e-07
-4.05223e-07
-2.38258e-07
-4.06697e-07
-1.4448e-07
-3.9275e-07
-7.08812e-08
-3.715e-07
-2.31539e-08
-3.30747e-07
1.33957e-10
-2.71672e-07
-5.67597e-09
-2.27848e-07
-1.7785e-07
-2.28722e-07
1.39225e-06
-4.37306e-07
1.15355e-06
-6.03724e-07
8.33546e-07
-7.34788e-07
5.82401e-07
-8.34143e-07
3.98537e-07
-9.09626e-07
2.78333e-07
-9.79548e-07
2.16776e-07
-1.04148e-06
1.96961e-07
-1.08485e-06
1.61873e-07
-1.08532e-06
8.77147e-08
-1.04714e-06
-2.72226e-09
-9.79842e-07
-9.70462e-08
-8.92079e-07
-1.9487e-07
-7.93553e-07
-2.9443e-07
-6.84653e-07
-3.83411e-07
-5.73804e-07
-4.55911e-07
-4.57225e-07
-4.99067e-07
-3.44514e-07
-5.18668e-07
-2.3304e-07
-5.10915e-07
-1.40233e-07
-4.87917e-07
-6.54768e-08
-4.3689e-07
-2.10695e-08
-3.77787e-07
-5.27502e-09
-2.90006e-07
-1.35417e-08
-2.34206e-07
-1.92377e-07
-2.03833e-07
1.59654e-06
-4.14938e-07
1.36478e-06
-5.87079e-07
1.00615e-06
-7.19739e-07
7.14052e-07
-8.1078e-07
4.87542e-07
-8.85874e-07
3.47468e-07
-9.6051e-07
2.91265e-07
-1.02976e-06
2.61731e-07
-1.07488e-06
2.07484e-07
-1.07342e-06
8.53328e-08
-1.03224e-06
-4.32704e-08
-9.63485e-07
-1.62382e-07
-8.75601e-07
-2.82416e-07
-7.69082e-07
-3.94665e-07
-6.56599e-07
-4.96676e-07
-5.33131e-07
-5.71686e-07
-4.13107e-07
-6.20945e-07
-2.8731e-07
-6.35113e-07
-1.76572e-07
-6.26023e-07
-6.95323e-08
-5.81508e-07
4.28206e-10
-5.15205e-07
5.83894e-08
-4.24601e-07
6.64267e-08
-3.10543e-07
6.99496e-08
-2.30772e-07
-1.29765e-07
-1.71234e-07
1.76807e-06
-3.7972e-07
1.57369e-06
-5.50054e-07
1.17666e-06
-6.74782e-07
8.34908e-07
-7.48337e-07
5.58987e-07
-8.25091e-07
4.19964e-07
-9.13114e-07
3.73225e-07
-9.78255e-07
3.2436e-07
-1.01626e-06
2.42781e-07
-1.00696e-06
7.50299e-08
-9.67504e-07
-8.12725e-08
-9.03229e-07
-2.27128e-07
-8.11925e-07
-3.6962e-07
-7.04123e-07
-5.02502e-07
-5.80985e-07
-6.14135e-07
-4.53533e-07
-6.99858e-07
-3.18479e-07
-7.49167e-07
-1.89729e-07
-7.65908e-07
-6.05006e-08
-7.4553e-07
4.55104e-08
-6.92134e-07
1.4e-07
-5.97581e-07
2.0147e-07
-4.93935e-07
2.60379e-07
-3.53987e-07
2.9098e-07
-2.74821e-07
1.5212e-07
-1.32781e-07
1.90055e-06
-3.23476e-07
1.76432e-06
-4.89817e-07
1.34188e-06
-6.02408e-07
9.49909e-07
-6.55873e-07
6.06794e-07
-7.35888e-07
4.96576e-07
-8.24101e-07
4.58639e-07
-8.89897e-07
3.87322e-07
-9.0939e-07
2.60596e-07
-9.04463e-07
6.96684e-08
-8.7328e-07
-1.13608e-07
-8.08631e-07
-2.8941e-07
-7.17396e-07
-4.60808e-07
-6.04344e-07
-6.1328e-07
-4.77576e-07
-7.40524e-07
-3.39773e-07
-8.34629e-07
-1.9764e-07
-8.90999e-07
-5.36358e-08
-9.05718e-07
8.04705e-08
-8.79344e-07
2.0105e-07
-8.06713e-07
3.0076e-07
-6.98753e-07
3.76341e-07
-5.59808e-07
4.00489e-07
-3.88232e-07
3.06742e-07
-1.99088e-07
4.54896e-07
-6.19155e-08
1.963e-06
-1.91512e-07
1.89519e-06
-3.44368e-07
1.49728e-06
-4.65076e-07
1.06804e-06
-5.18136e-07
6.63295e-07
-5.8573e-07
5.641e-07
-6.55348e-07
5.2748e-07
-7.23595e-07
4.55213e-07
-7.62294e-07
2.99201e-07
-8.04355e-07
1.12062e-07
-8.12494e-07
-1.03085e-07
-7.85873e-07
-3.16234e-07
-7.31629e-07
-5.13615e-07
-6.55883e-07
-6.88032e-07
-5.60908e-07
-8.3423e-07
-4.47726e-07
-9.46695e-07
-3.18725e-07
-1.01838e-06
-1.79247e-07
-1.04362e-06
-3.49485e-08
-1.02089e-06
1.12176e-07
-9.52076e-07
2.63987e-07
-8.47377e-07
4.15731e-07
-7.13424e-07
5.8782e-07
-5.67348e-07
8.35987e-07
-4.52565e-07
1.05456e-07
1.17449e-06
-1.5086e-08
1.97969e-06
-9.18259e-08
1.97368e-06
-2.26537e-07
1.63348e-06
-3.52892e-07
1.20098e-06
-4.33768e-07
7.46744e-07
-4.71261e-07
6.06755e-07
-5.20822e-07
5.81022e-07
-5.83482e-07
5.20844e-07
-6.42943e-07
3.61918e-07
-6.96554e-07
1.69318e-07
-7.17276e-07
-8.0735e-08
-6.95663e-07
-3.34498e-07
-6.44553e-07
-5.63175e-07
-5.71293e-07
-7.59813e-07
-4.79584e-07
-9.24607e-07
-3.68434e-07
-1.05636e-06
-2.38491e-07
-1.1468e-06
-9.38204e-08
-1.18632e-06
5.81318e-08
-1.17082e-06
2.1376e-07
-1.10572e-06
3.71897e-07
-1.00498e-06
5.37021e-07
-8.79713e-07
7.01352e-07
-7.34746e-07
8.64311e-07
-6.26226e-07
-3.50678e-07
1.32064e-06
2.98978e-08
1.95195e-06
1.14002e-09
2.00552e-06
-9.26614e-08
1.73218e-06
-2.17966e-07
1.33051e-06
-3.27388e-07
8.65639e-07
-3.65992e-07
6.55759e-07
-4.12915e-07
6.36498e-07
-4.74299e-07
5.88708e-07
-5.41633e-07
4.34761e-07
-5.92453e-07
2.26309e-07
-6.16169e-07
-5.06843e-08
-5.93535e-07
-3.54321e-07
-5.35686e-07
-6.18304e-07
-4.58307e-07
-8.35313e-07
-3.66966e-07
-1.01435e-06
-2.58221e-07
-1.16356e-06
-1.29785e-07
-1.2735e-06
1.38593e-08
-1.32813e-06
1.65341e-07
-1.32046e-06
3.21455e-07
-1.26051e-06
4.81274e-07
-1.164e-06
6.45793e-07
-1.04527e-06
8.16462e-07
-9.10333e-07
9.62193e-07
-7.727e-07
-6.05522e-07
1.21683e-06
6.64441e-08
1.88951e-06
7.9914e-08
1.99565e-06
3.13346e-08
1.78533e-06
-6.95636e-08
1.43911e-06
-1.97609e-07
1.00515e-06
-2.65021e-07
7.3645e-07
-3.19899e-07
7.02657e-07
-3.87371e-07
6.64625e-07
-4.58543e-07
5.1453e-07
-5.07197e-07
2.83276e-07
-5.29016e-07
-2.172e-08
-4.97656e-07
-3.80576e-07
-4.2485e-07
-6.87819e-07
-3.35591e-07
-9.22306e-07
-2.39987e-07
-1.10816e-06
-1.32086e-07
-1.26976e-06
-6.61177e-09
-1.39726e-06
1.32605e-07
-1.46562e-06
2.80071e-07
-1.46633e-06
4.32601e-07
-1.41181e-06
5.89054e-07
-1.32004e-06
7.49442e-07
-1.20653e-06
9.19499e-07
-1.08142e-06
1.09884e-06
-9.55014e-07
-8.25241e-07
1.31946e-06
9.11887e-08
1.80146e-06
1.3807e-07
1.95286e-06
1.27971e-07
1.80092e-06
6.21306e-08
1.51366e-06
-6.34705e-08
1.13984e-06
-1.557e-07
8.43522e-07
-2.17212e-07
7.76931e-07
-3.03049e-07
7.60689e-07
-3.85357e-07
6.0487e-07
-4.39615e-07
3.47894e-07
-4.61136e-07
1.00136e-08
-4.18783e-07
-4.16715e-07
-3.23191e-07
-7.79838e-07
-2.13609e-07
-1.02939e-06
-1.06906e-07
-1.21294e-06
4.10963e-09
-1.37909e-06
1.26493e-07
-1.51806e-06
2.59688e-07
-1.59732e-06
4.01013e-07
-1.60628e-06
5.47204e-07
-1.55697e-06
6.96685e-07
-1.46904e-06
8.49774e-07
-1.35986e-06
1.00828e-06
-1.24193e-06
1.17684e-06
-1.12328e-06
-1.01091e-06
1.36226e-06
1.08124e-07
1.69874e-06
1.75858e-07
1.88996e-06
1.94544e-07
1.7887e-06
1.57457e-07
1.55562e-06
6.4202e-08
1.24678e-06
-3.36118e-08
9.52828e-07
-1.12509e-07
8.68255e-07
-2.17157e-07
8.73508e-07
-3.08138e-07
7.05564e-07
-3.75335e-07
4.26701e-07
-4.05915e-07
5.36258e-08
-3.55291e-07
-4.61801e-07
-2.33866e-07
-8.96637e-07
-9.92288e-08
-1.16116e-06
2.53131e-08
-1.33555e-06
1.43563e-07
-1.4958e-06
2.63871e-07
-1.63701e-06
3.91461e-07
-1.72364e-06
5.25645e-07
-1.73929e-06
6.63681e-07
-1.6941e-06
8.03929e-07
-1.60891e-06
9.46398e-07
-1.50272e-06
1.09342e-06
-1.38881e-06
1.24566e-06
-1.27687e-06
-1.17138e-06
1.4068e-06
1.16636e-07
1.58562e-06
1.96832e-07
1.81435e-06
2.33758e-07
1.75575e-06
2.27954e-07
1.5727e-06
1.69492e-07
1.3111e-06
8.21843e-08
1.0523e-06
-2.21308e-08
9.8248e-07
-1.29268e-07
9.8946e-07
-2.21499e-07
8.06501e-07
-3.02904e-07
5.19333e-07
-3.50212e-07
1.14552e-07
-2.92628e-07
-5.11282e-07
-1.48355e-07
-1.03745e-06
1.03983e-08
-1.31752e-06
1.54504e-07
-1.47804e-06
2.82114e-07
-1.62214e-06
4.03375e-07
-1.75712e-06
5.26361e-07
-1.84553e-06
6.52596e-07
-1.86451e-06
7.80735e-07
-1.82148e-06
9.09937e-07
-1.73771e-06
1.04077e-06
-1.63344e-06
1.17407e-06
-1.523e-06
1.31235e-06
-1.41442e-06
-1.31409e-06
1.45505e-06
1.19978e-07
1.47132e-06
2.08054e-07
1.7305e-06
2.63889e-07
1.7069e-06
2.80352e-07
1.55904e-06
2.48996e-07
1.35429e-06
1.60949e-07
1.14932e-06
5.12231e-08
1.1e-06
-4.00215e-08
1.08733e-06
-1.21307e-07
8.93917e-07
-2.09046e-07
6.20951e-07
-2.71919e-07
1.92902e-07
-2.11635e-07
-5.67595e-07
-5.20949e-08
-1.19274e-06
1.22319e-07
-1.48968e-06
2.81809e-07
-1.63618e-06
4.19515e-07
-1.75881e-06
5.43617e-07
-1.88028e-06
6.62727e-07
-1.96373e-06
7.80363e-07
-1.9813e-06
8.97202e-07
-1.93763e-06
1.0138e-06
-1.85398e-06
1.13136e-06
-1.75108e-06
1.25197e-06
-1.64309e-06
1.376e-06
-1.5389e-06
-1.44188e-06
1.50453e-06
1.21896e-07
1.35155e-06
2.17668e-07
1.63808e-06
2.85353e-07
1.64216e-06
3.16471e-07
1.5379e-06
2.91487e-07
1.38295e-06
2.1101e-07
1.23742e-06
1.19175e-07
1.19755e-06
5.65651e-08
1.15448e-06
1.3515e-09
9.56931e-07
-8.07468e-08
7.10189e-07
-1.46539e-07
2.7957e-07
-8.65358e-08
-6.21113e-07
6.70471e-08
-1.34455e-06
2.43886e-07
-1.66518e-06
4.10973e-07
-1.80237e-06
5.56228e-07
-1.90333e-06
6.82953e-07
-2.00628e-06
7.98102e-07
-2.07813e-06
9.06422e-07
-2.0889e-06
1.01081e-06
-2.04146e-06
1.11381e-06
-1.95662e-06
1.21798e-06
-1.855e-06
1.32514e-06
-1.7505e-06
1.4373e-06
-1.65026e-06
-1.55816e-06
1.55397e-06
1.27306e-07
1.22851e-06
2.2702e-07
1.54164e-06
3.02683e-07
1.57221e-06
3.33412e-07
1.50695e-06
3.1469e-07
1.41043e-06
2.48474e-07
1.30681e-06
1.87563e-07
1.26215e-06
1.64338e-07
1.18034e-06
1.6446e-07
9.574e-07
1.73824e-07
7.17245e-07
9.97258e-08
3.74844e-07
8.90732e-08
-6.10414e-07
2.12756e-07
-1.46582e-06
3.79544e-07
-1.83087e-06
5.4531e-07
-1.96752e-06
6.92887e-07
-2.0504e-06
8.19711e-07
-2.13257e-06
9.29428e-07
-2.18726e-06
1.02724e-06
-2.18612e-06
1.11833e-06
-2.13204e-06
1.20735e-06
-2.04534e-06
1.29809e-06
-1.94562e-06
1.39353e-06
-1.84543e-06
1.49467e-06
-1.75122e-06
-1.66477e-06
1.60203e-06
1.33672e-07
1.09567e-06
2.3328e-07
1.44424e-06
3.03986e-07
1.50179e-06
3.38034e-07
1.48044e-06
3.25841e-07
1.42223e-06
2.86676e-07
1.34891e-06
2.5644e-07
1.29328e-06
2.55547e-07
1.18055e-06
2.71015e-07
9.44081e-07
2.59636e-07
7.2876e-07
2.42239e-07
3.90209e-07
2.71103e-07
-6.35553e-07
3.78351e-07
-1.573e-06
5.29428e-07
-1.98166e-06
6.86064e-07
-2.12397e-06
8.29549e-07
-2.19368e-06
9.51993e-07
-2.2547e-06
1.05331e-06
-2.28816e-06
1.13883e-06
-2.27117e-06
1.21589e-06
-2.2087e-06
1.29126e-06
-2.12039e-06
1.36991e-06
-2.02401e-06
1.45479e-06
-1.93012e-06
1.5474e-06
-1.84322e-06
-1.76427e-06
1.64756e-06
1.39221e-07
9.58945e-07
2.34767e-07
1.34992e-06
3.03053e-07
1.43688e-06
3.3652e-07
1.44542e-06
3.43973e-07
1.41812e-06
3.31504e-07
1.36185e-06
3.29256e-07
1.2938e-06
3.49598e-07
1.15864e-06
3.64865e-07
9.23938e-07
3.64653e-07
7.27166e-07
4.00319e-07
3.55073e-07
4.67782e-07
-7.06325e-07
5.60504e-07
-1.66545e-06
6.90835e-07
-2.11205e-06
8.31971e-07
-2.2652e-06
9.64764e-07
-2.32649e-06
1.07705e-06
-2.36685e-06
1.16588e-06
-2.37671e-06
1.23705e-06
-2.342e-06
1.29994e-06
-2.27125e-06
1.36283e-06
-2.18303e-06
1.43131e-06
-2.09224e-06
1.50828e-06
-2.00677e-06
1.59466e-06
-1.92902e-06
-1.85889e-06
1.68987e-06
1.43814e-07
8.14439e-07
2.37133e-07
1.25673e-06
3.02882e-07
1.37069e-06
3.46283e-07
1.40506e-06
3.70244e-07
1.3927e-06
3.84997e-07
1.34572e-06
4.09129e-07
1.26695e-06
4.4951e-07
1.11385e-06
4.75827e-07
8.93876e-07
4.99431e-07
6.97639e-07
5.82226e-07
2.63189e-07
6.64925e-07
-7.88703e-07
7.45127e-07
-1.74681e-06
8.55698e-07
-2.22321e-06
9.78165e-07
-2.38807e-06
1.09454e-06
-2.44309e-06
1.19061e-06
-2.46297e-06
1.26275e-06
-2.44873e-06
1.31819e-06
-2.39721e-06
1.36786e-06
-2.32067e-06
1.4207e-06
-2.23563e-06
1.48191e-06
-2.15328e-06
1.55376e-06
-2.07815e-06
1.6361e-06
-2.01107e-06
-1.95031e-06
1.72831e-06
1.51621e-07
6.62035e-07
2.44581e-07
1.16354e-06
3.13342e-07
1.30286e-06
3.65333e-07
1.3505e-06
4.08709e-07
1.35017e-06
4.47105e-07
1.30451e-06
4.95997e-07
1.21472e-06
5.57438e-07
1.04748e-06
6.07344e-07
8.37515e-07
6.61343e-07
6.36643e-07
7.63169e-07
1.58561e-07
8.40593e-07
-8.6991e-07
9.17372e-07
-1.82464e-06
1.01384e-06
-2.32048e-06
1.11706e-06
-2.49186e-06
1.21241e-06
-2.53882e-06
1.28707e-06
-2.5378e-06
1.33978e-06
-2.50143e-06
1.37996e-06
-2.43725e-06
1.41913e-06
-2.35965e-06
1.46541e-06
-2.28175e-06
1.52276e-06
-2.21034e-06
1.59181e-06
-2.14713e-06
1.6722e-06
-2.09064e-06
-2.03977e-06
1.76202e-06
1.63009e-07
4.9718e-07
2.61297e-07
1.06427e-06
3.33489e-07
1.22895e-06
3.97482e-07
1.28805e-06
4.55589e-07
1.28928e-06
5.1499e-07
1.2429e-06
5.83885e-07
1.1418e-06
6.60547e-07
9.65571e-07
7.3458e-07
7.57674e-07
8.13928e-07
5.50929e-07
9.01935e-07
6.34282e-08
9.82614e-07
-9.51902e-07
1.06661e-06
-1.9102e-06
1.15583e-06
-2.41065e-06
1.23967e-06
-2.57636e-06
1.31057e-06
-2.61017e-06
1.36105e-06
-2.58855e-06
1.39478e-06
-2.53525e-06
1.42294e-06
-2.46536e-06
1.45595e-06
-2.39256e-06
1.49971e-06
-2.32536e-06
1.55591e-06
-2.26646e-06
1.62426e-06
-2.21485e-06
1.70271e-06
-2.16912e-06
-2.12683e-06
1.79055e-06
1.7483e-07
3.19206e-07
2.8547e-07
9.52239e-07
3.65463e-07
1.14896e-06
4.37027e-07
1.2144e-06
5.08957e-07
1.21671e-06
5.83497e-07
1.16614e-06
6.65047e-07
1.05613e-06
7.50522e-07
8.7514e-07
8.38966e-07
6.63056e-07
9.22658e-07
4.6005e-07
9.9379e-07
-1.07374e-08
1.0886e-06
-1.04983e-06
1.18992e-06
-2.01279e-06
1.2745e-06
-2.49616e-06
1.33744e-06
-2.63999e-06
1.38244e-06
-2.65567e-06
1.41034e-06
-2.61676e-06
1.42959e-06
-2.55466e-06
1.45128e-06
-2.48708e-06
1.4829e-06
-2.42414e-06
1.52725e-06
-2.36963e-06
1.58408e-06
-2.323e-06
1.6514e-06
-2.28235e-06
1.72835e-06
-2.24513e-06
-2.21129e-06
1.81294e-06
1.809e-07
1.35514e-07
3.15131e-07
8.16731e-07
4.03517e-07
1.05946e-06
4.83802e-07
1.13446e-06
5.64532e-07
1.1344e-06
6.48466e-07
1.07994e-06
7.35328e-07
9.65669e-07
8.23301e-07
7.82773e-07
9.12008e-07
5.68527e-07
9.81871e-07
3.84853e-07
1.04373e-06
-7.76969e-08
1.16881e-06
-1.17625e-06
1.2892e-06
-2.13457e-06
1.36444e-06
-2.57228e-06
1.40482e-06
-2.681e-06
1.42651e-06
-2.67784e-06
1.4381e-06
-2.62869e-06
1.45017e-06
-2.56694e-06
1.47115e-06
-2.50816e-06
1.50478e-06
-2.45778e-06
1.55101e-06
-2.41579e-06
1.60795e-06
-2.37999e-06
1.67419e-06
-2.34788e-06
1.74765e-06
-2.31893e-06
-2.29174e-06
1.82882e-06
1.72511e-07
-3.9884e-08
3.42836e-07
6.45602e-07
4.46439e-07
9.55928e-07
5.33318e-07
1.04593e-06
6.20357e-07
1.04738e-06
7.07665e-07
9.90329e-07
7.94571e-07
8.76212e-07
8.79878e-07
6.93031e-07
9.56754e-07
4.8691e-07
1.00769e-06
3.27682e-07
1.07636e-06
-1.48573e-07
1.23573e-06
-1.33803e-06
1.36564e-06
-2.26545e-06
1.42274e-06
-2.63012e-06
1.44196e-06
-2.7008e-06
1.44775e-06
-2.6841e-06
1.45185e-06
-2.63315e-06
1.46363e-06
-2.57896e-06
1.48764e-06
-2.53231e-06
1.52423e-06
-2.49443e-06
1.57154e-06
-2.4631e-06
1.62759e-06
-2.43577e-06
1.6905e-06
-2.41117e-06
1.76071e-06
-2.38817e-06
-2.3683e-06
1.83721e-06
1.31852e-07
-1.75314e-07
3.55105e-07
4.21829e-07
4.87774e-07
8.22218e-07
5.85908e-07
9.49015e-07
6.74568e-07
9.57258e-07
7.61169e-07
9.02699e-07
8.43313e-07
7.91435e-07
9.20961e-07
6.11891e-07
9.80002e-07
4.22818e-07
1.01453e-06
2.88783e-07
1.10873e-06
-2.46731e-07
1.29726e-06
-1.5274e-06
1.41756e-06
-2.38687e-06
1.45197e-06
-2.66525e-06
1.45648e-06
-2.70584e-06
1.45569e-06
-2.68375e-06
1.45981e-06
-2.63761e-06
1.47526e-06
-2.59467e-06
1.50307e-06
-2.56029e-06
1.54141e-06
-2.53286e-06
1.58796e-06
-2.50966e-06
1.64102e-06
-2.48896e-06
1.70057e-06
-2.46999e-06
1.76576e-06
-2.4539e-06
-2.44004e-06
1.83814e-06
7.61313e-08
-2.51695e-07
3.42235e-07
1.55264e-07
5.22146e-07
6.43027e-07
6.36953e-07
8.33114e-07
7.28183e-07
8.66391e-07
8.09638e-07
8.20305e-07
8.84547e-07
7.14027e-07
9.51974e-07
5.41173e-07
9.94584e-07
3.75753e-07
1.00458e-06
2.7272e-07
1.14928e-06
-3.92872e-07
1.35113e-06
-1.73139e-06
1.44602e-06
-2.48252e-06
1.46311e-06
-2.68294e-06
1.46226e-06
-2.70548e-06
1.46023e-06
-2.68216e-06
1.46794e-06
-2.64569e-06
1.48759e-06
-2.6146e-06
1.51744e-06
-2.59035e-06
1.55502e-06
-2.57057e-06
1.59867e-06
-2.55336e-06
1.64798e-06
-2.53804e-06
1.7026e-06
-2.52514e-06
1.76405e-06
-2.51439e-06
-2.50774e-06
1.83153e-06
3.2361e-08
-2.87412e-07
2.9762e-07
-1.11103e-07
5.32507e-07
4.07174e-07
6.80859e-07
6.85918e-07
7.78692e-07
7.67791e-07
8.54085e-07
7.43699e-07
9.20946e-07
6.45217e-07
9.76737e-07
4.81764e-07
1.00727e-06
3.39891e-07
9.95739e-07
2.79801e-07
1.19742e-06
-5.98084e-07
1.39536e-06
-1.92995e-06
1.4592e-06
-2.54743e-06
1.46559e-06
-2.69001e-06
1.46488e-06
-2.70528e-06
1.46695e-06
-2.68466e-06
1.47884e-06
-2.65794e-06
1.50021e-06
-2.63626e-06
1.52885e-06
-2.61922e-06
1.56321e-06
-2.60507e-06
1.60276e-06
-2.59296e-06
1.64751e-06
-2.583e-06
1.6985e-06
-2.57539e-06
1.75497e-06
-2.57157e-06
-2.57066e-06
1.81845e-06
-2.78305e-08
-2.61215e-07
1.64817e-07
-3.06046e-07
4.85673e-07
8.6732e-08
6.96217e-07
4.73802e-07
8.18111e-07
6.45911e-07
8.9256e-07
6.67533e-07
9.47531e-07
5.87467e-07
9.88812e-07
4.36518e-07
1.0091e-06
3.14303e-07
9.96083e-07
2.86134e-07
1.25259e-06
-8.5587e-07
1.42881e-06
-2.10833e-06
1.47031e-06
-2.58979e-06
1.47389e-06
-2.69426e-06
1.47364e-06
-2.70557e-06
1.47789e-06
-2.68936e-06
1.49025e-06
-2.67069e-06
1.50955e-06
-2.65588e-06
1.53454e-06
-2.64446e-06
1.56467e-06
-2.63537e-06
1.60002e-06
-2.62841e-06
1.64109e-06
-2.62386e-06
1.68753e-06
-2.62247e-06
1.74065e-06
-2.62378e-06
-2.62959e-06
1.79924e-06
-3.63817e-08
-2.3055e-07
3.24051e-08
-3.77306e-07
3.57235e-07
-2.41485e-07
6.58914e-07
1.72219e-07
8.2774e-07
4.74989e-07
9.14313e-07
5.78959e-07
9.62558e-07
5.36194e-07
9.8623e-07
4.08231e-07
9.72259e-07
3.22134e-07
1.02914e-06
2.24791e-07
1.31269e-06
-1.14271e-06
1.45767e-06
-2.25421e-06
1.48597e-06
-2.61926e-06
1.48721e-06
-2.6963e-06
1.4849e-06
-2.70384e-06
1.48766e-06
-2.6926e-06
1.49709e-06
-2.68053e-06
1.51256e-06
-2.67168e-06
1.53346e-06
-2.66563e-06
1.55971e-06
-2.66181e-06
1.59148e-06
-2.66028e-06
1.62874e-06
-2.66137e-06
1.6721e-06
-2.66514e-06
1.72037e-06
-2.67287e-06
-2.68357e-06
1.77482e-06
-3.50801e-09
-2.31832e-07
1.38229e-08
-3.9886e-07
2.06303e-07
-4.36064e-07
5.45195e-07
-1.70283e-07
7.82998e-07
2.35716e-07
8.99392e-07
4.59862e-07
9.52022e-07
4.79851e-07
9.68099e-07
3.87124e-07
9.38458e-07
3.45859e-07
1.09474e-06
6.31334e-08
1.37811e-06
-1.42763e-06
1.48967e-06
-2.36781e-06
1.50561e-06
-2.63631e-06
1.50019e-06
-2.6917e-06
1.49343e-06
-2.6977e-06
1.49221e-06
-2.6919e-06
1.49756e-06
-2.6863e-06
1.50908e-06
-2.68355e-06
1.52638e-06
-2.68321e-06
1.54933e-06
-2.68498e-06
1.57786e-06
-2.68893e-06
1.612e-06
-2.69534e-06
1.651e-06
-2.70484e-06
1.69587e-06
-2.71689e-06
-2.73335e-06
1.74521e-06
2.44631e-08
-2.61565e-07
7.60351e-08
-4.53933e-07
1.50894e-07
-5.15207e-07
3.902e-07
-4.11817e-07
6.67252e-07
-4.50236e-08
8.26842e-07
2.97201e-07
9.01655e-07
4.00687e-07
9.2164e-07
3.61609e-07
9.01353e-07
3.59784e-07
1.16748e-06
-2.06598e-07
1.44219e-06
-1.70511e-06
1.52055e-06
-2.44747e-06
1.52191e-06
-2.63886e-06
1.5082e-06
-2.67884e-06
1.49599e-06
-2.68615e-06
1.49017e-06
-2.68661e-06
1.4916e-06
-2.68817e-06
1.49975e-06
-2.69207e-06
1.51406e-06
-2.69782e-06
1.53413e-06
-2.70527e-06
1.55967e-06
-2.7146e-06
1.59024e-06
-2.7262e-06
1.62618e-06
-2.74013e-06
1.66614e-06
-2.75772e-06
-2.7781e-06
1.71128e-06
1.00233e-08
-2.7917e-07
4.53493e-08
-4.93774e-07
8.86737e-08
-5.61937e-07
2.1813e-07
-5.46356e-07
4.77374e-07
-3.09459e-07
6.82564e-07
8.77015e-08
7.94246e-07
2.84594e-07
8.41868e-07
3.08165e-07
8.47648e-07
3.47936e-07
1.2442e-06
-6.06609e-07
1.49492e-06
-1.95748e-06
1.54124e-06
-2.49541e-06
1.52807e-06
-2.62682e-06
1.50683e-06
-2.65845e-06
1.48977e-06
-2.66973e-06
1.48038e-06
-2.67777e-06
1.47899e-06
-2.68722e-06
1.48469e-06
-2.69814e-06
1.49662e-06
-2.71005e-06
1.51416e-06
-2.72305e-06
1.53687e-06
-2.73747e-06
1.56455e-06
-2.75373e-06
1.59627e-06
-2.77259e-06
1.63295e-06
-2.79365e-06
-2.81876e-06
1.67312e-06
-4.64881e-08
-2.35896e-07
-6.78915e-08
-4.76551e-07
-6.39755e-08
-5.70898e-07
-1.75159e-08
-5.99346e-07
1.69627e-07
-5.0266e-07
4.30912e-07
-1.8009e-07
5.91106e-07
1.19141e-07
6.39438e-07
2.54041e-07
8.16323e-07
1.65603e-07
1.31444e-06
-1.10703e-06
1.52213e-06
-2.167e-06
1.54256e-06
-2.51716e-06
1.51943e-06
-2.60468e-06
1.49329e-06
-2.63308e-06
1.47335e-06
-2.65041e-06
1.46236e-06
-2.66729e-06
1.45965e-06
-2.68495e-06
1.4639e-06
-2.70276e-06
1.4741e-06
-2.72056e-06
1.48956e-06
-2.73874e-06
1.50982e-06
-2.75788e-06
1.53433e-06
-2.77855e-06
1.56333e-06
-2.80101e-06
1.59545e-06
-2.82665e-06
-2.85471e-06
1.6317e-06
-1.28095e-07
-1.16395e-07
-2.06738e-07
-4.02549e-07
-2.46035e-07
-5.36387e-07
-2.35816e-07
-6.13439e-07
-1.55663e-07
-5.93659e-07
7.67521e-08
-4.20458e-07
3.04451e-07
-1.14786e-07
4.16048e-07
1.36863e-07
8.93468e-07
-3.15384e-07
1.38136e-06
-1.59688e-06
1.52783e-06
-2.31487e-06
1.52564e-06
-2.51597e-06
1.49551e-06
-2.57546e-06
1.46676e-06
-2.60501e-06
1.4469e-06
-2.63111e-06
1.43648e-06
-2.65735e-06
1.4339e-06
-2.68278e-06
1.43765e-06
-2.70687e-06
1.44675e-06
-2.72996e-06
1.46059e-06
-2.75282e-06
1.4787e-06