/*--------------------------------*- C++ -*----------------------------------*\
  =========                 |
  \\      /  F ield         | OpenFOAM: The Open Source CFD Toolbox
   \\    /   O peration     | Website:  https://openfoam.org
    \\  /    A nd           | Version:  13
     \\/     M anipulation  |
\*---------------------------------------------------------------------------*/
FoamFile
{
    format      ascii;
    class       volVectorField;
    location    "24";
    object      U;
}
// * * * * * * * * * * * * * * * * * * * * * * * * * * * * * * * * * * * * * //

dimensions      [0 1 -1 0 0 0 0];

internalField   nonuniform List<vector> 
6440
(
(-0.034968 0.036309 0)
(-0.045775 0.00847459 0)
(0.0751909 -0.0839084 -7.95877e-16)
(0.223266 -0.139538 4.30819e-16)
(0.401202 -0.162346 0)
(0.60211 -0.161066 -4.34279e-16)
(0.778938 -0.144608 3.58043e-16)
(0.929739 -0.120945 0)
(1.05189 -0.0940497 0)
(1.14255 -0.0649569 0)
(1.1992 -0.0341611 5.18865e-16)
(1.21954 -0.00176171 -1.03672e-15)
(1.20112 0.0327538 5.17817e-16)
(1.14117 0.0705725 0)
(1.0384 0.110808 -1.13761e-15)
(0.891582 0.150557 1.26492e-15)
(0.700902 0.184486 0)
(0.466702 0.196905 0)
(0.206431 0.164436 0)
(-0.002622 0.0832031 0)
(-0.0580659 0.0238073 -7.79589e-15)
(-0.0735383 0.0193663 1.57587e-14)
(-0.0878022 0.00466192 -8.02491e-15)
(-0.0789461 -0.0156718 -8.72299e-15)
(-0.0284277 -0.00402858 1.00194e-14)
(-0.0175211 0.0758543 0)
(0.0874931 -0.0899297 0)
(0.264298 -0.308784 -2.98511e-16)
(0.451724 -0.41942 2.08371e-16)
(0.634036 -0.438758 0)
(0.804975 -0.408381 -2.90589e-16)
(0.961696 -0.353579 5.24374e-16)
(1.10122 -0.287369 -2.43533e-16)
(1.21949 -0.215566 0)
(1.31246 -0.140003 0)
(1.37574 -0.0613396 0)
(1.41628 0.0200305 -4.5629e-16)
(1.40446 0.102022 4.45158e-16)
(1.36919 0.184765 4.41677e-16)
(1.30417 0.266851 -4.4814e-16)
(1.19697 0.344796 0)
(1.05487 0.413187 0)
(0.883724 0.460266 0)
(0.659723 0.462976 0)
(0.393399 0.384587 0)
(0.145032 0.219054 -3.12292e-15)
(-0.0108549 0.0601376 6.0316e-15)
(-0.102306 -0.0329633 0)
(-0.130813 -0.0986634 -6.77627e-15)
(-0.0550062 -0.065811 1.54268e-14)
(0.0220952 0.0324587 0)
(0.208875 -0.353443 0)
(0.406608 -0.60674 0)
(0.580196 -0.683635 0)
(0.732265 -0.663896 0)
(0.871599 -0.601984 0)
(1.00106 -0.521186 2.2818e-16)
(1.11832 -0.429409 -2.19647e-16)
(1.21859 -0.328979 0)
(1.298 -0.22063 0)
(1.35428 -0.105019 0)
(1.3804 0.0170957 0)
(1.37516 0.14353 0)
(1.3419 0.271311 4.35545e-16)
(1.29245 0.396738 -1.29928e-15)
(1.21024 0.515188 8.78156e-16)
(1.10264 0.619055 0)
(0.972731 0.697693 0)
(0.815186 0.7329 0)
(0.61646 0.689952 0)
(0.369827 0.528903 0)
(0.112268 0.263225 0)
(-0.0976313 -0.0115217 8.54091e-15)
(-0.147137 -0.150989 -6.67093e-15)
(-0.0582379 -0.14509 6.1643e-15)
(0.0842478 -0.207445 0)
(0.282638 -0.688659 0)
(0.446558 -0.865306 -1.4908e-16)
(0.578135 -0.87979 1.3076e-16)
(0.696226 -0.832505 0)
(0.810039 -0.756852 -2.28902e-16)
(0.917605 -0.660479 2.2154e-16)
(1.01348 -0.54523 0)
(1.0931 -0.413445 4.41984e-16)
(1.15343 -0.268106 -4.58504e-16)
(1.19314 -0.112788 4.87787e-16)
(1.21237 0.0500108 -1.0572e-15)
(1.21159 0.214602 4.95176e-16)
(1.1893 0.377368 0)
(1.14258 0.532975 0)
(1.0742 0.676398 0)
(0.98719 0.799839 9.35468e-16)
(0.885292 0.892685 1.26365e-18)
(0.769156 0.940597 -1.05154e-15)
(0.629811 0.91604 0)
(0.443509 0.77018 0)
(0.197603 0.470703 2.36428e-15)
(-0.0630276 0.0711658 -5.88695e-15)
(-0.100812 -0.173613 -7.46433e-15)
(-0.0264397 -0.182264 1.14616e-14)
(0.118398 -0.556132 0)
(0.270612 -0.959876 0)
(0.377693 -1.03441 -1.40006e-16)
(0.468155 -1.01825 1.28959e-16)
(0.558335 -0.968812 0)
(0.64617 -0.887935 -2.37059e-16)
(0.724585 -0.77589 2.36557e-16)
(0.789661 -0.636489 0)
(0.840934 -0.476055 5.1165e-16)
(0.878085 -0.299865 -5.59712e-16)
(0.899433 -0.113022 6.35131e-16)
(0.904428 0.0815371 -1.39896e-15)
(0.898723 0.272989 6.3618e-16)
(0.883789 0.460405 0)
(0.85673 0.640066 1.10388e-15)
(0.81258 0.803862 -1.06421e-15)
(0.750643 0.939991 1.06013e-15)
(0.676613 1.03595 1.72325e-18)
(0.595039 1.07938 -1.14818e-15)
(0.50225 1.04897 0)
(0.377252 0.904523 1.52793e-15)
(0.194315 0.588023 6.2139e-19)
(-0.0382181 0.131493 -5.26855e-15)
(-0.00559911 -0.157692 -7.94237e-15)
(0.0130283 -0.174254 5.76359e-15)
(0.0994813 -0.825413 0)
(0.189923 -1.09372 0)
(0.241481 -1.12754 -1.45594e-16)
(0.290349 -1.11293 1.38346e-16)
(0.342787 -1.05928 0)
(0.39118 -0.964215 -2.72284e-16)
(0.431731 -0.834942 2.84671e-16)
(0.466519 -0.677944 0)
(0.500757 -0.498713 6.87506e-16)
(0.534319 -0.305087 -8.05696e-16)
(0.560525 -0.107219 1.03842e-15)
(0.550291 0.0839938 -2.20459e-15)
(0.525842 0.288147 9.6703e-16)
(0.50763 0.501158 0)
(0.491551 0.707437 -1.51012e-15)
(0.468188 0.891195 1.39222e-15)
(0.432556 1.03575 1.34157e-15)
(0.389649 1.12834 2.46607e-18)
(0.347596 1.16401 -1.37661e-15)
(0.301576 1.11427 0)
(0.23278 0.940756 -1.56624e-15)
(0.120066 0.601701 4.32198e-15)
(-0.0129886 0.126047 -5.31632e-15)
(0.0814417 -0.134549 -6.77852e-15)
(0.0426695 -0.114797 6.19429e-15)
(0.0576777 -0.971404 0)
(0.081423 -1.15664 0)
(0.0739796 -1.16842 -1.64432e-16)
(0.0694047 -1.14135 1.63351e-16)
(0.0690231 -1.06971 0)
(0.0694394 -0.961768 -3.62313e-16)
(0.0727471 -0.822072 4.08387e-16)
(0.0851349 -0.650463 0)
(0.113178 -0.444309 1.27624e-15)
(0.160943 -0.205378 -2.07203e-15)
(0.240202 0.0820759 5.70789e-15)
(0.22312 0.213328 -6.71778e-15)
(0.144447 0.369495 1.87112e-15)
(0.111763 0.566793 0)
(0.096016 0.771886 0)
(0.0826661 0.956894 0)
(0.0692016 1.09762 1.16917e-15)
(0.0597502 1.16998 2.11216e-18)
(0.0598502 1.17554 -1.04651e-15)
(0.0622405 1.09687 0)
(0.0543837 0.886017 0)
(0.0339486 0.512193 2.17425e-15)
(0.0670835 0.038416 -6.82443e-15)
(0.15025 -0.111668 -6.38906e-15)
(0.0757925 -0.0595344 7.20646e-15)
(0.0116996 -1.00139 0)
(-0.0370519 -1.0982 0)
(-0.108345 -1.10301 -1.71492e-16)
(-0.174287 -1.07427 1.6358e-16)
(-0.230522 -1.00942 0)
(-0.276354 -0.906841 -3.32136e-16)
(-0.307008 -0.769261 3.54272e-16)
(-0.315066 -0.596559 0)
(-0.29392 -0.390542 9.17911e-16)
(-0.248158 -0.166676 -1.15987e-15)
(-0.212551 0.0467053 1.58668e-15)
(-0.232887 0.230368 -2.27498e-15)
(-0.288574 0.41863 8.40204e-16)
(-0.317208 0.627014 0)
(-0.329181 0.830063 0)
(-0.328048 1.00011 0)
(-0.313067 1.11235 8.4783e-16)
(-0.282981 1.15103 1.62203e-18)
(-0.235792 1.13094 -8.61318e-16)
(-0.170286 0.994259 0)
(-0.0823271 0.714418 0)
(0.0335264 0.320049 3.17163e-15)
(0.187763 -0.0296932 -8.50099e-15)
(0.206482 -0.036483 -6.3155e-15)
(0.109586 0.00837303 1.83846e-14)
(-0.0298654 -0.908393 0)
(-0.156851 -0.950528 0)
(-0.291038 -0.962877 0)
(-0.419083 -0.947823 0)
(-0.530201 -0.895193 2.63164e-16)
(-0.622863 -0.80448 -2.57996e-16)
(-0.693881 -0.679728 2.60106e-16)
(-0.739264 -0.521318 -2.71139e-16)
(-0.758177 -0.332076 5.82813e-16)
(-0.758708 -0.124407 -3.27479e-19)
(-0.75627 0.083493 9.56926e-21)
(-0.761053 0.283099 -5.85616e-16)
(-0.77418 0.486087 -4.94402e-16)
(-0.777403 0.687219 8.53049e-16)
(-0.765108 0.867493 -1.142e-15)
(-0.733413 1.0023 7.0763e-16)
(-0.678203 1.07549 0)
(-0.592341 1.07983 7.23443e-16)
(-0.464907 0.97839 -8.25359e-16)
(-0.293383 0.733181 1.11213e-15)
(-0.100451 0.392666 2.89752e-19)
(0.0393311 0.0747421 -6.0062e-19)
(0.0519144 -0.0340547 -8.15124e-15)
(0.0981913 0.0137349 0)
(0.0709119 0.0604532 -1.43158e-14)
(-0.0629072 -0.633494 0)
(-0.265297 -0.71541 0)
(-0.459717 -0.744285 0)
(-0.643229 -0.750895 0)
(-0.803595 -0.722247 -2.32738e-16)
(-0.938253 -0.655464 2.19958e-16)
(-1.04567 -0.552787 -2.14453e-16)
(-1.12424 -0.415658 2.16081e-16)
(-1.17418 -0.247017 0)
(-1.20257 -0.0574708 -4.76581e-16)
(-1.21719 0.139056 -3.65326e-20)
(-1.21962 0.336256 4.1371e-16)
(-1.21023 0.532606 0)
(-1.1848 0.715072 -3.35721e-16)
(-1.13792 0.862411 9.45862e-16)
(-1.05802 0.945437 -6.18956e-16)
(-0.93326 0.959189 6.50073e-16)
(-0.750927 0.858541 -7.47153e-16)
(-0.519632 0.640732 0)
(-0.296793 0.370685 -1.52479e-15)
(-0.164881 0.141054 5.58663e-15)
(-0.158659 0.00580505 -8.15328e-15)
(-0.149235 -0.0481118 3.99477e-15)
(-0.0829248 -0.0139604 0)
(0.0018963 0.0276385 -9.14088e-15)
(-0.0925853 -0.354507 0)
(-0.35913 -0.418417 0)
(-0.600774 -0.469643 0)
(-0.823524 -0.505996 0)
(-1.01755 -0.509631 2.21425e-16)
(-1.18141 -0.473384 -2.03107e-16)
(-1.31523 -0.399251 1.93447e-16)
(-1.41843 -0.290664 -1.90826e-16)
(-1.48919 -0.149793 3.86519e-16)
(-1.53082 0.0163993 -1.35871e-19)
(-1.54874 0.19475 -3.80276e-16)
(-1.54389 0.373817 0)
(-1.51678 0.543927 -3.17128e-16)
(-1.45819 0.686865 6.01415e-16)
(-1.33936 0.774181 -8.93981e-16)
(-1.17951 0.772462 6.303e-16)
(-0.949084 0.658046 0)
(-0.676033 0.466426 9.88814e-16)
(-0.436832 0.292572 -1.46759e-15)
(-0.301685 0.170788 2.24721e-15)
(-0.25814 0.0462232 -5.8831e-20)
(-0.248067 -0.0761269 -3.27946e-15)
(-0.244136 -0.144653 0)
(-0.20672 -0.146857 0)
(-0.0760395 -0.074102 0)
(-0.119954 -0.0411786 0)
(-0.42272 -0.0977054 0)
(-0.688313 -0.172805 1.81309e-16)
(-0.927299 -0.239745 -1.36599e-16)
(-1.1331 -0.279384 0)
(-1.30736 -0.278676 2.02644e-16)
(-1.45157 -0.236622 -3.8043e-16)
(-1.56551 -0.159042 1.85116e-16)
(-1.64662 -0.0507946 0)
(-1.68617 0.0820436 0)
(-1.69828 0.227592 0)
(-1.6608 0.370807 3.25708e-16)
(-1.58826 0.490105 -3.12267e-16)
(-1.45974 0.555914 -3.13126e-16)
(-1.26578 0.534023 -3.36446e-16)
(-1.00128 0.405329 8.05286e-16)
(-0.7108 0.228196 1.1167e-15)
(-0.492865 0.125848 -1.6963e-15)
(-0.375251 0.0906192 0)
(-0.287186 0.0102828 0)
(-0.222377 -0.0914157 3.74172e-15)
(-0.20409 -0.159897 -3.56888e-15)
(-0.216602 -0.210358 0)
(-0.236558 -0.235279 3.52558e-15)
(-0.124975 -0.166661 -9.2075e-15)
(-0.122848 0.281759 0)
(-0.428134 0.229096 0)
(-0.686786 0.11703 -1.82061e-16)
(-0.913703 0.0120759 1.49419e-16)
(-1.10577 -0.0641405 2.56056e-16)
(-1.26838 -0.0980729 -4.46145e-16)
(-1.40351 -0.0881241 4.12893e-16)
(-1.50364 -0.0400907 -1.99858e-16)
(-1.5767 0.0334564 0)
(-1.60681 0.120474 3.9255e-16)
(-1.58999 0.211918 -3.70987e-16)
(-1.51538 0.292724 -3.61102e-16)
(-1.37623 0.331034 -3.8537e-19)
(-1.16965 0.290349 8.06121e-16)
(-0.90418 0.161737 -1.49697e-15)
(-0.646426 0.0156456 1.38937e-15)
(-0.514295 -0.0364963 0)
(-0.459388 -0.0343688 0)
(-0.387365 -0.0842708 0)
(-0.273986 -0.159259 3.86406e-15)
(-0.191934 -0.212761 -4.2102e-15)
(-0.147384 -0.235691 0)
(-0.144708 -0.253909 0)
(-0.17768 -0.266584 -3.9937e-15)
(-0.133922 -0.221112 -1.95139e-19)
(-0.123874 0.585324 0)
(-0.381749 0.52361 0)
(-0.581545 0.362095 1.61e-16)
(-0.753517 0.215123 -1.57905e-16)
(-0.906184 0.104362 -3.03818e-16)
(-1.03918 0.036627 5.59827e-16)
(-1.14492 0.0117126 -5.15378e-16)
(-1.22336 0.0252975 2.4982e-16)
(-1.27201 0.0608626 0)
(-1.28443 0.100592 -4.93934e-16)
(-1.2456 0.132059 4.84622e-16)
(-1.14267 0.139698 4.98824e-16)
(-0.97856 0.100245 -5.52885e-16)
(-0.781794 0.00724784 -6.80924e-16)
(-0.623156 -0.0919186 -8.61558e-16)
(-0.559448 -0.139704 2.11682e-15)
(-0.503345 -0.152527 2.37324e-15)
(-0.460133 -0.172323 -2.91455e-15)
(-0.394362 -0.212836 0)
(-0.294339 -0.254512 -4.49671e-15)
(-0.199355 -0.283458 9.69692e-15)
(-0.123235 -0.28902 -4.46535e-15)
(-0.0967093 -0.285723 0)
(-0.124939 -0.286 3.94865e-15)
(-0.109587 -0.232452 -4.30898e-15)
(-0.125257 0.922275 7.6222e-17)
(-0.341721 0.759109 7.05712e-17)
(-0.513638 0.53956 -1.44163e-16)
(-0.66092 0.353203 2.99638e-16)
(-0.791298 0.218305 -3.60636e-19)
(-0.899791 0.130007 -3.15855e-16)
(-0.982659 0.0860189 3.07327e-16)
(-1.03697 0.0810313 2.96259e-16)
(-1.06532 0.0978649 -6.01703e-16)
(-1.05553 0.110626 6.0704e-16)
(-1.01191 0.102439 -6.2199e-16)
(-0.935416 0.0645212 0)
(-0.842708 -0.00235049 -7.3906e-16)
(-0.75235 -0.0836861 1.66919e-15)
(-0.667296 -0.165282 -8.65767e-16)
(-0.597855 -0.232249 1.82506e-15)
(-0.538369 -0.277489 -2.03867e-15)
(-0.482421 -0.305103 0)
(-0.414072 -0.324496 0)
(-0.319715 -0.334315 3.79377e-15)
(-0.215703 -0.339175 2.85655e-19)
(-0.123571 -0.325951 -3.53929e-15)
(-0.0772066 -0.299808 0)
(-0.08191 -0.271482 0)
(-0.0798723 -0.210104 -4.51853e-15)
(-0.116241 1.18465 0)
(-0.312448 0.962545 0)
(-0.491629 0.686173 0)
(-0.645159 0.464365 0)
(-0.780898 0.30674 0)
(-0.88989 0.202734 0)
(-0.972096 0.14648 0)
(-1.03033 0.127841 0)
(-1.06653 0.125064 6.24171e-16)
(-1.07496 0.109567 -6.24474e-16)
(-1.04862 0.0701368 0)
(-0.992267 0.00572305 0)
(-0.916178 -0.0801269 0)
(-0.830066 -0.177487 0)
(-0.742491 -0.272305 0)
(-0.663344 -0.349678 0)
(-0.593202 -0.401907 -1.68633e-15)
(-0.525224 -0.424338 3.94589e-15)
(-0.446151 -0.426903 -4.80369e-15)
(-0.346617 -0.41501 3.01019e-15)
(-0.242352 -0.394821 3.24626e-15)
(-0.143363 -0.354092 -3.14558e-15)
(-0.0822292 -0.295269 -3.38196e-15)
(-0.0447077 -0.2351 3.87813e-15)
(-0.0556377 -0.125149 -5.45624e-15)
(-0.102731 1.40687 0)
(-0.289831 1.15414 0)
(-0.484703 0.831969 1.17345e-16)
(-0.647289 0.579857 -1.28266e-16)
(-0.78057 0.402879 0)
(-0.882082 0.290067 3.05457e-16)
(-0.966242 0.230722 -6.52281e-16)
(-1.03453 0.201165 3.2533e-16)
(-1.08289 0.168577 6.25524e-16)
(-1.11 0.108643 -6.22618e-16)
(-1.09486 0.0272444 -6.04475e-16)
(-1.04482 -0.0653504 1.19982e-15)
(-0.970843 -0.166416 -6.08642e-16)
(-0.884674 -0.273463 -6.1779e-16)
(-0.794793 -0.374296 -6.37693e-16)
(-0.708488 -0.457217 1.32376e-15)
(-0.627008 -0.51013 0)
(-0.544051 -0.531755 1.62154e-15)
(-0.451575 -0.524074 -1.94403e-15)
(-0.346428 -0.496383 0)
(-0.242029 -0.447098 2.87244e-15)
(-0.134123 -0.377313 -6.01435e-15)
(-0.0533903 -0.277217 3.38157e-15)
(0.0466181 -0.172724 3.98215e-15)
(0.00492075 -0.0244187 -1.51267e-14)
(-0.0840787 1.59417 4.77308e-17)
(-0.265162 1.3359 4.85328e-17)
(-0.469618 0.980571 -1.0788e-16)
(-0.629624 0.699608 2.4057e-16)
(-0.748385 0.496784 -5.45388e-16)
(-0.84475 0.371179 3.09776e-16)
(-0.943643 0.307732 0)
(-1.02829 0.266804 6.4446e-16)
(-1.07717 0.199555 -6.12768e-16)
(-1.10814 0.0913955 -6.31908e-16)
(-1.0925 -0.0260311 5.883e-16)
(-1.04722 -0.138028 0)
(-0.978649 -0.252271 5.62025e-16)
(-0.896108 -0.365892 -5.67984e-16)
(-0.804315 -0.472588 1.15142e-15)
(-0.709032 -0.556473 9.88287e-19)
(-0.611675 -0.610506 -2.58006e-15)
(-0.512253 -0.629214 1.45899e-15)
(-0.405027 -0.61722 -1.69204e-15)
(-0.290862 -0.574249 -9.91726e-19)
(-0.177113 -0.500113 4.96792e-15)
(-0.0522699 -0.401697 -2.74413e-15)
(0.0570466 -0.263361 0)
(0.239151 -0.122213 0)
(0.166498 0.13887 0)
(-0.0620624 1.74433 0)
(-0.228912 1.51204 0)
(-0.43012 1.12877 0)
(-0.578476 0.814829 0)
(-0.675287 0.57523 0)
(-0.769908 0.432949 0)
(-0.898406 0.369744 -3.3992e-16)
(-0.997976 0.316941 3.22261e-16)
(-1.03931 0.229084 6.14856e-16)
(-1.04573 0.074837 -6.68518e-16)
(-1.03277 -0.0690671 -6.03034e-16)
(-0.996729 -0.201543 5.65269e-16)
(-0.936555 -0.333805 0)
(-0.858533 -0.459482 -5.42426e-16)
(-0.766015 -0.570986 5.51697e-16)
(-0.662617 -0.657067 0)
(-0.552451 -0.709597 0)
(-0.436581 -0.726064 1.39387e-15)
(-0.316391 -0.707027 -3.32574e-15)
(-0.185511 -0.650398 1.87415e-15)
(-0.0598447 -0.553657 2.00011e-15)
(0.0929763 -0.436931 -4.20016e-15)
(0.221137 -0.268368 2.52674e-15)
(0.523247 -0.109755 0)
(0.414477 0.232746 -3.10376e-15)
(-0.0411002 1.85521 0)
(-0.176618 1.68206 0)
(-0.364077 1.25818 9.67042e-17)
(-0.500832 0.890125 -1.13785e-16)
(-0.587629 0.584201 0)
(-0.683766 0.43964 3.5925e-16)
(-0.816 0.397418 -7.07239e-16)
(-0.922943 0.338869 3.30144e-16)
(-0.953787 0.250202 6.52416e-16)
(-0.941236 0.0545104 -7.49974e-16)
(-0.942097 -0.109773 0)
(-0.914563 -0.265086 5.85191e-16)
(-0.861117 -0.420605 -5.50508e-16)
(-0.787694 -0.563439 -5.37723e-16)
(-0.696111 -0.684261 -5.41177e-16)
(-0.587587 -0.775432 1.12745e-15)
(-0.46629 -0.827976 0)
(-0.338195 -0.840806 1.40098e-15)
(-0.203416 -0.813699 -1.47729e-15)
(-0.0621704 -0.741134 0)
(0.0775191 -0.626222 0)
(0.24639 -0.490099 0)
(0.383916 -0.29271 0)
(0.802987 -0.0552195 2.70153e-15)
(0.524668 0.69814 -3.95384e-15)
(-0.020156 1.92633 0)
(-0.110474 1.82699 0)
(-0.27309 1.39131 0)
(-0.408955 0.960539 0)
(-0.505403 0.557778 0)
(-0.597292 0.441424 0)
(-0.690493 0.403236 0)
(-0.776086 0.352001 0)
(-0.820257 0.216533 0)
(-0.828085 0.0312176 0)
(-0.842436 -0.154334 0)
(-0.818924 -0.33928 0)
(-0.77039 -0.517652 0)
(-0.700472 -0.678702 0)
(-0.609058 -0.814814 0)
(-0.496007 -0.916613 0)
(-0.366332 -0.976782 0)
(-0.227714 -0.990521 0)
(-0.0845827 -0.958329 0)
(0.0655539 -0.879691 0)
(0.219635 -0.764927 0)
(0.392062 -0.619557 0)
(0.561938 -0.469369 0)
(0.883932 -0.347991 0)
(1.30045 0.447667 0)
(0.00351768 1.95718 0)
(-0.0386246 1.91977 0)
(-0.166044 1.53015 0)
(-0.299664 1.06661 0)
(-0.417431 0.595615 0)
(-0.515927 0.47108 0)
(-0.561791 0.436766 0)
(-0.611831 0.391576 0)
(-0.669793 0.251841 0)
(-0.714888 0.074841 0)
(-0.738368 -0.140536 0)
(-0.720785 -0.356454 0)
(-0.678373 -0.558378 0)
(-0.613722 -0.738814 0)
(-0.526411 -0.893123 0)
(-0.415449 -1.01496 0)
(-0.284876 -1.09481 0)
(-0.142656 -1.12542 0)
(0.007509 -1.10285 0)
(0.163451 -1.02949 0)
(0.324479 -0.92136 0)
(0.488734 -0.788374 0)
(0.677499 -0.645101 0)
(0.825677 -0.57346 0)
(1.18303 -0.312635 0)
(0.0232015 1.94968 0)
(0.0246835 1.96913 0)
(-0.0523211 1.65694 0)
(-0.165227 1.21337 0)
(-0.297595 0.714653 0)
(-0.418253 0.506593 0)
(-0.451302 0.50327 0)
(-0.481319 0.475154 0)
(-0.547185 0.326207 0)
(-0.60989 0.12207 0)
(-0.630243 -0.126117 0)
(-0.61203 -0.380673 0)
(-0.565407 -0.611622 0)
(-0.498009 -0.810493 0)
(-0.411568 -0.980146 0)
(-0.303027 -1.1203 0)
(-0.174948 -1.22035 0)
(-0.0337556 -1.26694 0)
(0.115688 -1.25186 0)
(0.270724 -1.18444 0)
(0.430493 -1.08183 0)
(0.593045 -0.957988 0)
(0.763819 -0.81802 0)
(0.928052 -0.686901 0)
(1.11333 -0.537756 0)
(0.0379354 1.90951 0)
(0.0745366 1.9922 0)
(0.0501568 1.74452 0)
(-0.0276559 1.35841 0)
(-0.145035 0.880024 0)
(-0.29099 0.629727 0)
(-0.346449 0.625278 0)
(-0.385211 0.586486 0)
(-0.465062 0.428648 0)
(-0.527437 0.192741 0)
(-0.541028 -0.0937093 0)
(-0.512306 -0.399754 0)
(-0.45145 -0.66749 0)
(-0.373749 -0.883817 0)
(-0.282955 -1.06383 0)
(-0.175401 -1.2199 0)
(-0.0511429 -1.34054 0)
(0.0860234 -1.40315 0)
(0.231421 -1.39772 0)
(0.382272 -1.33841 0)
(0.537245 -1.24278 0)
(0.695721 -1.12619 0)
(0.859849 -0.997444 0)
(1.03335 -0.864102 0)
(1.23052 -0.713936 0)
(0.0476414 1.84365 0)
(0.110337 1.97314 0)
(0.123927 1.79129 0)
(0.0863389 1.47046 0)
(0.00271951 1.05854 0)
(-0.143594 0.764607 0)
(-0.225033 0.737562 0)
(-0.302683 0.704796 0)
(-0.401774 0.538983 0)
(-0.467655 0.267661 0)
(-0.478932 -0.0694584 0)
(-0.431948 -0.435661 0)
(-0.348666 -0.749867 0)
(-0.251583 -0.979631 0)
(-0.149269 -1.15938 0)
(-0.0392113 -1.32296 0)
(0.0819739 -1.45895 0)
(0.2136 -1.53358 0)
(0.353138 -1.53838 0)
(0.497862 -1.48614 0)
(0.645769 -1.39627 0)
(0.796521 -1.28543 0)
(0.95137 -1.16524 0)
(1.11407 -1.04463 0)
(1.29176 -0.926993 0)
(0.0541246 1.75944 0)
(0.132745 1.92972 0)
(0.172791 1.80412 0)
(0.165761 1.54368 0)
(0.111475 1.20106 0)
(0.00871361 0.899682 0)
(-0.0870699 0.83052 0)
(-0.222993 0.830416 0)
(-0.338338 0.65293 0)
(-0.42063 0.349657 0)
(-0.436484 -0.0409833 0)
(-0.369329 -0.484306 0)
(-0.259434 -0.86051 0)
(-0.137609 -1.10299 0)
(-0.017519 -1.27274 0)
(0.0993836 -1.43363 0)
(0.218997 -1.57518 0)
(0.34576 -1.65992 0)
(0.478956 -1.67335 0)
(0.616002 -1.62683 0)
(0.755018 -1.54102 0)
(0.895502 -1.43437 0)
(1.03916 -1.3199 0)
(1.18809 -1.20655 0)
(1.3449 -1.10096 0)
(0.0568818 1.66276 0)
(0.143368 1.87069 0)
(0.197792 1.79039 0)
(0.214206 1.58267 0)
(0.190393 1.29505 0)
(0.147456 1.01485 0)
(0.0350078 0.943548 0)
(-0.143013 0.961424 0)
(-0.272112 0.770813 0)
(-0.37569 0.449377 0)
(-0.403643 0.0114928 0)
(-0.310687 -0.533266 0)
(-0.174744 -0.993483 0)
(-0.0287601 -1.25092 0)
(0.110011 -1.40596 0)
(0.236061 -1.55387 0)
(0.357784 -1.69261 0)
(0.481419 -1.78216 0)
(0.607785 -1.80135 0)
(0.735619 -1.75872 0)
(0.863949 -1.6755 0)
(0.993043 -1.57151 0)
(1.12388 -1.46074 0)
(1.2587 -1.3522 0)
(1.39898 -1.25167 0)
(0.0574494 1.55755 0)
(0.147029 1.7994 0)
(0.212111 1.75899 0)
(0.247625 1.59036 0)
(0.260411 1.35493 0)
(0.238943 1.12417 0)
(0.115537 1.07604 0)
(-0.0614998 1.08265 0)
(-0.198613 0.888676 0)
(-0.323704 0.575631 0)
(-0.365567 0.116638 0)
(-0.237994 -0.570708 0)
(-0.0807475 -1.13896 0)
(0.0821393 -1.41546 0)
(0.234832 -1.55693 0)
(0.371182 -1.68505 0)
(0.497305 -1.81306 0)
(0.618932 -1.90094 0)
(0.73815 -1.92147 0)
(0.855515 -1.88007 0)
(0.971646 -1.79797 0)
(1.08758 -1.69583 0)
(1.20544 -1.58806 0)
(1.32672 -1.48332 0)
(1.45227 -1.38654 0)
(0.0584835 1.44551 0)
(0.150639 1.71414 0)
(0.224428 1.70453 0)
(0.275698 1.57735 0)
(0.299503 1.39939 0)
(0.288577 1.23087 0)
(0.174473 1.19704 0)
(0.0292363 1.18077 0)
(-0.108057 0.995386 0)
(-0.257915 0.736434 0)
(-0.316995 0.33435 0)
(-0.134425 -0.587282 0)
(0.0361919 -1.28474 0)
(0.202323 -1.58541 0)
(0.36195 -1.71877 0)
(0.505987 -1.82582 0)
(0.636259 -1.9373 0)
(0.755995 -2.01663 0)
(0.867534 -2.03311 0)
(0.973313 -1.98965 0)
(1.07598 -1.90713 0)
(1.17832 -1.80638 0)
(1.28256 -1.70155 0)
(1.39102 -1.60075 0)
(1.5048 -1.50766 0)
(0.0619576 1.32681 0)
(0.157821 1.61928 0)
(0.237893 1.6374 0)
(0.293365 1.55411 0)
(0.322457 1.43319 0)
(0.312782 1.3192 0)
(0.231487 1.28713 0)
(0.131322 1.24372 0)
(0.0133048 1.06387 0)
(-0.156019 0.825523 0)
(-0.269689 0.849526 0)
(0.00580509 -0.578141 0)
(0.178626 -1.40633 0)
(0.337365 -1.74984 0)
(0.49547 -1.88304 0)
(0.641831 -1.97177 0)
(0.773586 -2.06367 0)
(0.889904 -2.12841 0)
(0.992456 -2.13539 0)
(1.08554 -2.0866 0)
(1.17415 -2.0024 0)
(1.26249 -1.90301 0)
(1.35424 -1.8018 0)
(1.45145 -1.70568 0)
(1.55496 -1.61751 0)
(0.0667715 1.20186 0)
(0.165671 1.52245 0)
(0.244236 1.56689 0)
(0.296933 1.52961 0)
(0.327962 1.45974 0)
(0.33391 1.37623 0)
(0.295426 1.33626 0)
(0.242162 1.2648 0)
(0.142004 1.08157 0)
(-0.0299737 0.90534 0)
(-0.0719692 0.887701 0)
(0.168009 -0.55664 0)
(0.341342 -1.50281 0)
(0.487638 -1.90049 0)
(0.636823 -2.04105 0)
(0.779348 -2.11657 0)
(0.908036 -2.18831 0)
(1.01763 -2.23384 0)
(1.10895 -2.22665 0)
(1.18816 -2.16997 0)
(1.26253 -2.08364 0)
(1.33804 -1.9865 0)
(1.41844 -1.89031 0)
(1.50616 -1.80068 0)
(1.60197 -1.71903 0)
(0.0725614 1.06978 0)
(0.170678 1.42887 0)
(0.245379 1.49987 0)
(0.295655 1.49647 0)
(0.333226 1.45908 0)
(0.362028 1.39845 0)
(0.364354 1.34317 0)
(0.354892 1.23979 0)
(0.280398 1.04366 0)
(0.0933903 0.897101 0)
(0.158681 0.687494 0)
(0.364494 -0.601418 0)
(0.519658 -1.58941 0)
(0.649677 -2.03267 0)
(0.784575 -2.18613 0)
(0.917429 -2.25378 0)
(1.03737 -2.30592 0)
(1.13556 -2.32914 0)
(1.21275 -2.30469 0)
(1.27718 -2.23909 0)
(1.33809 -2.15153 0)
(1.40222 -2.05856 0)
(1.47381 -1.96962 0)
(1.55462 -1.88819 0)
(1.64475 -1.81469 0)
(0.0784548 0.929913 0)
(0.174486 1.33296 0)
(0.246777 1.43333 0)
(0.299144 1.45809 0)
(0.347286 1.43917 0)
(0.396487 1.38808 0)
(0.433434 1.31244 0)
(0.466611 1.17691 0)
(0.419931 0.97248 0)
(0.269183 0.823761 0)
(0.39051 0.485703 0)
(0.569054 -0.686491 0)
(0.700461 -1.66836 0)
(0.814549 -2.14655 0)
(0.93356 -2.3148 0)
(1.05229 -2.37778 0)
(1.1575 -2.4106 0)
(1.23917 -2.40991 0)
(1.29964 -2.3675 0)
(1.34934 -2.29419 0)
(1.39865 -2.20788 0)
(1.45443 -2.12184 0)
(1.51997 -2.04229 0)
(1.59636 -1.97086 0)
(1.68322 -1.9065 0)
(0.0854757 0.777856 0)
(0.182121 1.23625 0)
(0.257053 1.3626 0)
(0.313177 1.40739 0)
(0.371425 1.40249 0)
(0.436606 1.35047 0)
(0.501349 1.25602 0)
(0.573685 1.09152 0)
(0.553269 0.885832 0)
(0.483741 0.725565 0)
(0.616039 0.29793 0)
(0.754868 -0.778816 0)
(0.86746 -1.7467 0)
(0.971775 -2.24751 0)
(1.07645 -2.42658 0)
(1.17764 -2.48399 0)
(1.2625 -2.49663 0)
(1.32347 -2.47231 0)
(1.36636 -2.41434 0)
(1.40329 -2.33707 0)
(1.44444 -2.25578 0)
(1.49533 -2.17954 0)
(1.55798 -2.11138 0)
(1.63223 -2.05074 0)
(1.71691 -1.99609 0)
(0.0945158 0.608629 0)
(0.197301 1.13484 0)
(0.27853 1.28715 0)
(0.340935 1.34441 0)
(0.406518 1.34608 0)
(0.481406 1.29375 0)
(0.568507 1.18643 0)
(0.665457 1.00189 0)
(0.676291 0.79549 0)
(0.686388 0.621275 0)
(0.799132 0.150268 0)
(0.901799 -0.871635 0)
(1.01091 -1.83185 0)
(1.11323 -2.34218 0)
(1.20514 -2.52181 0)
(1.28542 -2.56843 0)
(1.34571 -2.55964 0)
(1.38473 -2.51477 0)
(1.4123 -2.44698 0)
(1.44069 -2.37147 0)
(1.47808 -2.29934 0)
(1.52771 -2.23519 0)
(1.58967 -2.17906 0)
(1.66276 -2.12928 0)
(1.74564 -2.0839 0)
(0.106291 0.411477 0)
(0.220841 1.01957 0)
(0.312128 1.20284 0)
(0.381505 1.27097 0)
(0.451419 1.27651 0)
(0.532424 1.22487 0)
(0.633377 1.11032 0)
(0.736393 0.917806 0)
(0.782004 0.702886 0)
(0.838763 0.509069 0)
(0.919244 0.0443321 0)
(1.00647 -0.970355 0)
(1.12879 -1.93241 0)
(1.23393 -2.43532 0)
(1.31184 -2.59908 0)
(1.36778 -2.62785 0)
(1.40271 -2.59824 0)
(1.42313 -2.53969 0)
(1.44093 -2.47021 0)
(1.46625 -2.40249 0)
(1.50397 -2.34258 0)
(1.55459 -2.29119 0)
(1.61667 -2.24653 0)
(1.68857 -2.20637 0)
(1.76898 -2.16937 0)
(0.117509 0.181696 0)
(0.251909 0.880834 0)
(0.355771 1.10767 0)
(0.433315 1.18717 0)
(0.505604 1.19632 0)
(0.588719 1.14589 0)
(0.692329 1.02852 0)
(0.790929 0.834834 0)
(0.859883 0.610548 0)
(0.929302 0.416375 0)
(0.979056 -0.0381728 0)
(1.07996 -1.09 0)
(1.22635 -2.0528 0)
(1.33089 -2.5235 0)
(1.38994 -2.65384 0)
(1.42058 -2.66105 0)
(1.43461 -2.61642 0)
(1.44388 -2.55357 0)
(1.45878 -2.49046 0)
(1.48572 -2.43469 0)
(1.52598 -2.38785 0)
(1.57793 -2.34817 0)
(1.63948 -2.31319 0)
(1.70909 -2.28124 0)
(1.78611 -2.25158 0)
(0.120936 -0.0731942 0)
(0.284907 0.707811 0)
(0.406434 1.00101 0)
(0.492986 1.09479 0)
(0.566303 1.1058 0)
(0.64717 1.05582 0)
(0.743387 0.939039 0)
(0.834317 0.746674 0)
(0.912281 0.524294 0)
(0.973803 0.355253 0)
(1.00457 -0.105323 0)
(1.14179 -1.23878 0)
(1.30793 -2.18831 0)
(1.40083 -2.59615 0)
(1.43662 -2.68443 0)
(1.44599 -2.67326 0)
(1.44842 -2.62261 0)
(1.45477 -2.56473 0)
(1.47217 -2.51289 0)
(1.50298 -2.47021 0)
(1.54565 -2.43513 0)
(1.59766 -2.40499 0)
(1.6571 -2.37778 0)
(1.72334 -2.35267 0)
(1.79631 -2.32977 0)
(0.0918654 -0.346499 0)
(0.30682 0.49466 0)
(0.454738 0.879959 0)
(0.554594 0.996418 0)
(0.629541 1.0082 0)
(0.704429 0.957651 0)
(0.787852 0.844099 0)
(0.869419 0.655755 0)
(0.945445 0.452132 0)
(0.991463 0.304847 0)
(1.02049 -0.179098 0)
(1.2035 -1.4177 0)
(1.37312 -2.32241 0)
(1.44227 -2.64295 0)
(1.45551 -2.69483 0)
(1.4536 -2.67481 0)
(1.45354 -2.62631 0)
(1.46274 -2.57863 0)
(1.48496 -2.53961 0)
(1.5191 -2.50854 0)
(1.56228 -2.48272 0)
(1.61232 -2.45984 0)
(1.66838 -2.43888 0)
(1.73043 -2.41995 0)
(1.79895 -2.40359 0)
(0.00615127 -0.301432 0)
(0.294948 0.262405 0)
(0.48736 0.730869 0)
(0.609846 0.891011 0)
(0.690406 0.910917 0)
(0.759293 0.861929 0)
(0.828967 0.75398 0)
(0.900401 0.57534 0)
(0.968877 0.393424 0)
(0.992816 0.267155 0)
(1.04011 -0.292406 0)
(1.26674 -1.61854 0)
(1.41868 -2.43442 0)
(1.45909 -2.66711 0)
(1.46157 -2.69557 0)
(1.45541 -2.67418 0)
(1.45796 -2.63318 0)
(1.4722 -2.59749 0)
(1.49826 -2.56971 0)
(1.53305 -2.54753 0)
(1.5742 -2.52842 0)
(1.62069 -2.51116 0)
(1.67247 -2.49578 0)
(1.7302 -2.48282 0)
(1.79441 -2.47298 0)
(-0.0333535 -0.247915 0)
(0.232777 0.0278662 0)
(0.484885 0.533521 0)
(0.647074 0.766124 0)
(0.744921 0.817093 0)
(0.812099 0.779928 0)
(0.869541 0.680296 0)
(0.93476 0.516355 0)
(0.97551 0.359652 0)
(0.990888 0.258951 0)
(1.07656 -0.470118 0)
(1.32679 -1.82456 0)
(1.44636 -2.51457 0)
(1.46285 -2.67895 0)
(1.4598 -2.69789 0)
(1.45945 -2.67524 0)
(1.46619 -2.64468 0)
(1.48407 -2.61973 0)
(1.51027 -2.60039 0)
(1.54259 -2.58439 0)
(1.57989 -2.57037 0)
(1.62208 -2.55817 0)
(1.66973 -2.54831 0)
(1.72329 -2.54142 0)
(1.78319 -2.53804 0)
(-0.0488736 -0.202994 0)
(0.0700133 -0.222744 0)
(0.410287 0.26612 0)
(0.645535 0.597953 0)
(0.782844 0.716559 0)
(0.859584 0.711487 0)
(0.911015 0.62634 0)
(0.959072 0.478195 0)
(0.974616 0.3529 0)
(0.968074 0.303168 0)
(1.13239 -0.700375 0)
(1.37877 -2.01649 0)
(1.46238 -2.56371 0)
(1.46866 -2.68521 0)
(1.46769 -2.69902 0)
(1.46866 -2.68071 0)
(1.47758 -2.65908 0)
(1.49438 -2.64177 0)
(1.5175 -2.62823 0)
(1.54572 -2.61708 0)
(1.57879 -2.60788 0)
(1.61705 -2.60096 0)
(1.66079 -2.59683 0)
(1.71047 -2.59597 0)
(1.76624 -2.5988 0)
(-0.0427827 -0.190171 0)
(-0.00995248 -0.317396 0)
(0.246092 -0.0726304 0)
(0.579092 0.35098 0)
(0.784532 0.581881 0)
(0.887918 0.639566 0)
(0.944314 0.582624 0)
(0.972947 0.450655 0)
(0.961027 0.343972 0)
(0.941365 0.360611 0)
(1.20184 -0.974244 0)
(1.42177 -2.17902 0)
(1.47602 -2.59897 0)
(1.48262 -2.68987 0)
(1.47918 -2.69952 0)
(1.47902 -2.68622 0)
(1.48572 -2.67147 0)
(1.49907 -2.66007 0)
(1.51807 -2.6516 0)
(1.54226 -2.64541 0)
(1.57165 -2.64147 0)
(1.60638 -2.64009 0)
(1.64667 -2.64165 0)
(1.6925 -2.64654 0)
(1.74392 -2.65514 0)
(-0.00772453 -0.167266 0)
(0.0402668 -0.3419 0)
(0.10905 -0.378481 0)
(0.432066 -0.00424715 0)
(0.72125 0.372634 0)
(0.878518 0.535725 0)
(0.948214 0.528727 0)
(0.970275 0.42919 0)
(0.938743 0.379371 0)
(0.962211 0.215629 0)
(1.2767 -1.26177 0)
(1.45929 -2.30799 0)
(1.4988 -2.62404 0)
(1.49716 -2.68916 0)
(1.48896 -2.69618 0)
(1.48507 -2.68825 0)
(1.48792 -2.67971 0)
(1.49723 -2.67405 0)
(1.51241 -2.67104 0)
(1.53317 -2.67027 0)
(1.55939 -2.6718 0)
(1.59097 -2.67589 0)
(1.62772 -2.68285 0)
(1.66968 -2.69306 0)
(1.7168 -2.70693 0)
(0.0137205 -0.173871 0)
(0.0811908 -0.375275 0)
(0.124562 -0.452319 0)
(0.260784 -0.337084 0)
(0.581533 0.0836529 0)
(0.803004 0.377543 0)
(0.903783 0.443554 0)
(0.939295 0.381563 0)
(0.900447 0.371719 0)
(0.999749 0.0214631 0)
(1.35089 -1.54938 0)
(1.4956 -2.40835 0)
(1.5197 -2.63533 0)
(1.50778 -2.6825 0)
(1.4933 -2.68858 0)
(1.48478 -2.68598 0)
(1.48356 -2.68393 0)
(1.48926 -2.68453 0)
(1.50129 -2.68738 0)
(1.51918 -2.69219 0)
(1.54253 -2.6991 0)
(1.57096 -2.70838 0)
(1.60433 -2.72037 0)
(1.64239 -2.73545 0)
(1.68507 -2.75411 0)
(0.0196834 -0.212046 0)
(0.0646917 -0.437563 0)
(0.0773281 -0.490467 0)
(0.096333 -0.474716 0)
(0.355512 -0.209176 0)
(0.642374 0.170915 0)
(0.795861 0.324432 0)
(0.846416 0.317148 0)
(0.84485 0.327201 0)
(1.05162 -0.356774 0)
(1.41942 -1.83496 0)
(1.5255 -2.47394 0)
(1.52993 -2.6324 0)
(1.50884 -2.66662 0)
(1.48893 -2.67585 0)
(1.4765 -2.6796 0)
(1.4722 -2.68483 0)
(1.4753 -2.69217 0)
(1.48494 -2.70107 0)
(1.5004 -2.71143 0)
(1.52111 -2.7235 0)
(1.54664 -2.73765 0)
(1.57661 -2.75426 0)
(1.61091 -2.7738 0)
(1.6494 -2.79676 0)
(0.00624422 -0.230167 0)
(-0.0117202 -0.463983 0)
(-0.0442311 -0.531739 0)
(-0.111232 -0.531414 0)
(-0.0163515 -0.41937 0)
(0.344637 -0.0549923 0)
(0.598855 0.185088 0)
(0.6703 0.267891 0)
(0.679839 0.376673 0)
(1.13844 -0.848008 0)
(1.47088 -2.07755 0)
(1.53402 -2.51199 0)
(1.52465 -2.61644 0)
(1.49714 -2.64529 0)
(1.4738 -2.65843 0)