/*--------------------------------*- C++ -*----------------------------------*\
  =========                 |
  \\      /  F ield         | OpenFOAM: The Open Source CFD Toolbox
   \\    /   O peration     | Website:  https://openfoam.org
    \\  /    A nd           | Version:  13
     \\/     M anipulation  |
\*---------------------------------------------------------------------------*/
FoamFile
{
    format      ascii;
    class       volVectorField;
    location    "24";
    object      U;
}
// * * * * * * * * * * * * * * * * * * * * * * * * * * * * * * * * * * * * * //

dimensions      [0 1 -1 0 0 0 0];

internalField   nonuniform List<vector> 
6440
(
(4.58827e-07 -8.48007e-07 0)
(1.12034e-06 -1.30564e-06 0)
(2.09833e-06 -1.20405e-06 -4.2823e-21)
(2.73116e-06 -1.23214e-06 4.26863e-21)
(3.25429e-06 -1.41288e-06 0)
(3.59917e-06 -1.62674e-06 -8.40716e-21)
(3.75369e-06 -1.8303e-06 8.3544e-21)
(3.69322e-06 -1.99276e-06 0)
(3.39316e-06 -2.08174e-06 1.6434e-20)
(2.84995e-06 -2.06846e-06 -1.62831e-20)
(2.06988e-06 -1.92429e-06 -1.62345e-20)
(1.0629e-06 -1.62155e-06 -1.08655e-22)
(-1.0486e-07 -1.16269e-06 -1.43069e-22)
(-1.34998e-06 -5.8599e-07 1.59121e-20)
(-2.61598e-06 1.01087e-07 1.60715e-20)
(-3.82147e-06 8.69695e-07 -1.58428e-20)
(-4.8728e-06 1.67152e-06 0)
(-5.72704e-06 2.48443e-06 3.20825e-20)
(-6.37063e-06 3.30188e-06 4.6636e-22)
(-6.80426e-06 4.06621e-06 -3.14857e-20)
(-7.01617e-06 4.63426e-06 3.18215e-20)
(-6.92409e-06 4.70135e-06 -6.29205e-20)
(-7.56476e-06 4.29603e-06 3.10856e-20)
(-6.34102e-06 1.30854e-06 -3.12702e-20)
(-1.92452e-06 -2.03754e-06 -1.27155e-22)
(4.50915e-07 -2.31865e-06 0)
(1.10163e-06 -3.49074e-06 0)
(2.02829e-06 -3.16488e-06 -4.57498e-21)
(2.73672e-06 -3.07882e-06 4.56047e-21)
(3.44119e-06 -3.26452e-06 0)
(4.06758e-06 -3.48612e-06 -8.95192e-21)
(4.61002e-06 -3.6765e-06 8.89603e-21)
(5.03496e-06 -3.80073e-06 0)
(5.31287e-06 -3.83434e-06 0)
(5.42335e-06 -3.75119e-06 0)
(5.34424e-06 -3.53092e-06 0)
(5.01842e-06 -3.14385e-06 -1.69311e-20)
(4.397e-06 -2.56262e-06 1.67315e-20)
(3.55906e-06 -1.83985e-06 0)
(2.60622e-06 -1.04377e-06 1.67265e-20)
(1.57068e-06 -1.80589e-07 -1.64899e-20)
(5.16283e-07 7.20882e-07 0)
(-4.68677e-07 1.61154e-06 0)
(-1.3368e-06 2.45064e-06 3.36909e-20)
(-2.08185e-06 3.2199e-06 -3.31244e-20)
(-2.66325e-06 3.80148e-06 3.39838e-20)
(-2.87671e-06 3.74367e-06 -3.33744e-20)
(-4.53262e-06 3.36402e-06 -3.4239e-20)
(-5.73838e-06 4.01471e-07 -6.82489e-22)
(-7.9377e-07 -5.20168e-06 2.48965e-20)
(4.71912e-07 -3.80277e-06 0)
(1.30778e-06 -5.48609e-06 0)
(2.31645e-06 -5.00528e-06 -4.63562e-21)
(3.15219e-06 -4.91197e-06 4.62171e-21)
(4.03286e-06 -5.14547e-06 0)
(4.84201e-06 -5.37977e-06 -9.03457e-21)
(5.56825e-06 -5.54288e-06 1.79115e-20)
(6.17762e-06 -5.60395e-06 -8.86912e-21)
(6.62974e-06 -5.53501e-06 1.74161e-20)
(6.8837e-06 -5.31256e-06 -1.72651e-20)
(6.8803e-06 -4.90937e-06 -1.69982e-20)
(6.56482e-06 -4.30149e-06 -2.21639e-24)
(5.8788e-06 -3.44811e-06 1.66355e-20)
(4.79306e-06 -2.31633e-06 1.65906e-20)
(3.42002e-06 -9.86451e-07 1.66663e-22)
(1.903e-06 4.23929e-07 -1.6323e-20)
(3.21025e-07 1.87882e-06 0)
(-1.27337e-06 3.36226e-06 3.3442e-20)
(-2.76809e-06 4.79031e-06 -3.29253e-20)
(-4.03564e-06 6.0882e-06 0)
(-4.98171e-06 7.15066e-06 3.45135e-20)
(-5.18209e-06 7.47919e-06 -6.8854e-20)
(-6.14814e-06 7.45279e-06 3.4316e-20)
(-6.83367e-06 5.32724e-06 -3.55368e-20)
(-2.04719e-07 -2.37168e-06 2.61149e-20)
(5.32943e-07 -5.48013e-06 0)
(1.53766e-06 -7.45449e-06 0)
(2.58919e-06 -6.80766e-06 -4.68944e-21)
(3.47839e-06 -6.74525e-06 4.67614e-21)
(4.43958e-06 -7.05483e-06 0)
(5.32611e-06 -7.34745e-06 -9.10326e-21)
(6.09759e-06 -7.5284e-06 1.80335e-20)
(6.73629e-06 -7.5872e-06 -8.92295e-21)
(7.20079e-06 -7.51009e-06 0)
(7.43652e-06 -7.27558e-06 0)
(7.38458e-06 -6.85549e-06 0)
(6.98249e-06 -6.21319e-06 -1.67221e-20)
(6.18814e-06 -5.31289e-06 1.65442e-20)
(4.95329e-06 -4.10072e-06 1.6434e-20)
(3.23138e-06 -2.51815e-06 -1.62349e-20)
(1.17717e-06 -6.84614e-07 0)
(-9.48413e-07 1.20196e-06 3.29699e-20)
(-3.05224e-06 3.13433e-06 -3.25044e-20)
(-5.01555e-06 5.06872e-06 0)
(-6.66291e-06 6.88296e-06 0)
(-7.8757e-06 8.49015e-06 0)
(-8.09252e-06 9.37798e-06 0)
(-8.37823e-06 9.78732e-06 0)
(-8.6231e-06 8.60546e-06 -3.64449e-20)
(-2.7198e-07 -4.96647e-07 -3.48594e-22)
(5.78834e-07 -7.34714e-06 0)
(1.70074e-06 -9.38844e-06 0)
(2.72675e-06 -8.53034e-06 -4.74391e-21)
(3.58422e-06 -8.48721e-06 4.73118e-21)
(4.49519e-06 -8.84077e-06 0)
(5.34895e-06 -9.1716e-06 -9.17546e-21)
(6.09361e-06 -9.37275e-06 1.81637e-20)
(6.67168e-06 -9.41212e-06 -8.98136e-21)
(7.06639e-06 -9.31068e-06 0)
(7.23949e-06 -9.06336e-06 0)
(7.13115e-06 -8.64483e-06 0)
(6.6811e-06 -8.01888e-06 -1.6644e-20)
(5.83641e-06 -7.14334e-06 1.64759e-20)
(4.56745e-06 -5.97477e-06 1.62987e-20)
(2.79799e-06 -4.42484e-06 -1.6111e-20)
(4.71489e-07 -2.40511e-06 0)
(-2.08563e-06 -1.43699e-07 3.26853e-20)
(-4.56012e-06 2.12253e-06 -3.2246e-20)
(-6.88091e-06 4.43291e-06 0)
(-8.83224e-06 6.66072e-06 0)
(-1.02122e-05 8.6366e-06 0)
(-1.05011e-05 9.96214e-06 0)
(-1.04436e-05 1.07862e-05 0)
(-1.05434e-05 1.04794e-05 -3.7077e-20)
(-5.84134e-07 6.33883e-07 2.78728e-20)
(5.9752e-07 -9.29751e-06 0)
(1.79054e-06 -1.11919e-05 0)
(2.73216e-06 -1.00785e-05 -4.80329e-21)
(3.50116e-06 -1.0021e-05 4.79109e-21)
(4.28033e-06 -1.03655e-05 0)
(4.99694e-06 -1.06683e-05 -9.25982e-21)
(5.657e-06 -1.08623e-05 1.83191e-20)
(6.1639e-06 -1.08953e-05 -9.05274e-21)
(6.46063e-06 -1.07552e-05 1.754e-20)
(6.55394e-06 -1.049e-05 -1.74105e-20)
(6.40699e-06 -1.00907e-05 0)
(5.95793e-06 -9.52303e-06 -1.65953e-20)
(5.15042e-06 -8.74184e-06 7.95505e-23)
(3.93965e-06 -7.69065e-06 3.2371e-20)
(2.28278e-06 -6.30133e-06 -1.60052e-20)
(7.24749e-08 -4.42354e-06 0)
(-2.67542e-06 -2.00551e-06 3.23511e-20)
(-5.51888e-06 5.84978e-07 8.03012e-22)
(-8.11423e-06 3.15558e-06 1.00816e-21)
(-1.03981e-05 5.74389e-06 -3.28478e-20)
(-1.20866e-05 8.1011e-06 0)
(-1.25312e-05 9.76041e-06 0)
(-1.23214e-05 1.0922e-05 0)
(-1.24358e-05 1.14252e-05 -3.74844e-20)
(-9.84206e-07 1.22917e-06 2.84911e-20)
(5.97348e-07 -1.12402e-05 0)
(1.83058e-06 -1.27908e-05 0)
(2.65753e-06 -1.13855e-05 -4.86973e-21)
(3.30992e-06 -1.12692e-05 4.85802e-21)
(3.92878e-06 -1.15579e-05 9.51049e-21)
(4.45356e-06 -1.17864e-05 -1.88329e-20)
(4.93547e-06 -1.19158e-05 1.85077e-20)
(5.34911e-06 -1.19394e-05 -9.14122e-21)
(5.57278e-06 -1.17974e-05 0)
(5.577e-06 -1.15434e-05 1.72687e-20)
(5.39855e-06 -1.12056e-05 -1.71356e-20)
(4.9911e-06 -1.07588e-05 -1.65818e-20)
(4.29071e-06 -1.01566e-05 1.64311e-20)
(3.23712e-06 -9.33134e-06 1.60888e-20)
(1.7839e-06 -8.20335e-06 -1.59215e-20)
(-1.71124e-07 -6.63596e-06 0)
(-2.78082e-06 -4.42315e-06 3.19825e-20)
(-5.845e-06 -1.6471e-06 -3.1593e-20)
(-8.81154e-06 1.17047e-06 0)
(-1.14552e-05 4.06227e-06 3.37329e-20)
(-1.35617e-05 6.87536e-06 -3.32691e-20)
(-1.43127e-05 8.97028e-06 0)
(-1.40163e-05 1.04082e-05 0)
(-1.4162e-05 1.16144e-05 -3.77203e-20)
(-1.36041e-06 1.33599e-06 -5.05087e-22)
(5.8711e-07 -1.31198e-05 0)
(1.84105e-06 -1.41612e-05 0)
(2.54641e-06 -1.24398e-05 -4.9442e-21)
(3.07439e-06 -1.22253e-05 4.93294e-21)
(3.52543e-06 -1.24278e-05 0)
(3.85971e-06 -1.25758e-05 -9.47941e-21)
(4.14075e-06 -1.26268e-05 9.43669e-21)
(4.40569e-06 -1.26127e-05 0)
(4.53281e-06 -1.2512e-05 0)
(4.45758e-06 -1.23013e-05 0)
(4.25668e-06 -1.20604e-05 0)
(3.90879e-06 -1.17888e-05 -1.66088e-20)
(3.35308e-06 -1.14402e-05 1.64657e-20)
(2.51804e-06 -1.09383e-05 0)
(1.33162e-06 -1.0181e-05 0)
(-2.89715e-07 -9.04029e-06 0)
(-2.53553e-06 -7.27143e-06 0)
(-5.63702e-06 -4.61227e-06 0)
(-8.95738e-06 -1.49063e-06 3.25083e-20)
(-1.1937e-05 1.68052e-06 -3.20981e-20)
(-1.44974e-05 4.99476e-06 0)
(-1.57219e-05 7.69229e-06 0)
(-1.54787e-05 9.50702e-06 0)
(-1.56882e-05 1.13588e-05 -3.78234e-20)
(-1.68024e-06 1.12211e-06 2.93628e-20)
(5.71918e-07 -1.49035e-05 0)
(1.83455e-06 -1.53113e-05 0)
(2.42878e-06 -1.32615e-05 -5.02692e-21)
(2.84275e-06 -1.29201e-05 5.01607e-21)
(3.1398e-06 -1.30237e-05 0)
(3.30798e-06 -1.31038e-05 -9.61832e-21)
(3.41079e-06 -1.31084e-05 1.9001e-20)
(3.48773e-06 -1.30671e-05 -9.37706e-21)
(3.51904e-06 -1.30149e-05 0)
(3.40945e-06 -1.28691e-05 0)
(3.17347e-06 -1.27427e-05 1.70947e-20)
(2.87043e-06 -1.26708e-05 -3.36469e-20)
(2.46163e-06 -1.26155e-05 1.6545e-20)
(1.86945e-06 -1.24987e-05 1.60014e-20)
(9.94213e-07 -1.21955e-05 -1.58512e-20)
(-2.66961e-07 -1.15524e-05 0)
(-2.10562e-06 -1.03281e-05 -3.12515e-20)
(-4.83405e-06 -8.13841e-06 3.09066e-20)
(-8.31136e-06 -4.87128e-06 0)
(-1.17663e-05 -1.32104e-06 0)
(-1.481e-05 2.53905e-06 0)
(-1.66312e-05 5.97784e-06 3.52454e-20)
(-1.65569e-05 8.30019e-06 -3.47743e-20)
(-1.6961e-05 1.07888e-05 -3.78197e-20)
(-1.93801e-06 7.07699e-07 2.9657e-20)
(5.53734e-07 -1.65692e-05 0)
(1.8181e-06 -1.62649e-05 0)
(2.32486e-06 -1.38885e-05 0)
(2.6525e-06 -1.34072e-05 0)
(2.83341e-06 -1.34214e-05 0)
(2.88036e-06 -1.3465e-05 0)
(2.85662e-06 -1.34686e-05 0)
(2.80067e-06 -1.34339e-05 0)
(2.77908e-06 -1.34097e-05 -1.82226e-20)
(2.64844e-06 -1.33703e-05 1.8114e-20)
(2.36941e-06 -1.3376e-05 0)
(2.09708e-06 -1.3495e-05 0)
(1.81628e-06 -1.37202e-05 0)
(1.45643e-06 -1.39894e-05 0)
(9.11933e-07 -1.41763e-05 0)
(4.59323e-08 -1.40901e-05 0)
(-1.31507e-06 -1.3483e-05 0)
(-3.50723e-06 -1.19138e-05 -3.10818e-20)
(-6.90133e-06 -8.90615e-06 3.07399e-20)
(-1.07085e-05 -4.95623e-06 0)
(-1.42685e-05 -5.42405e-07 -3.34497e-20)
(-1.68145e-05 3.83954e-06 3.30371e-20)
(-1.72036e-05 6.91583e-06 0)
(-1.80036e-05 1.01017e-05 0)
(-2.09106e-06 2.5823e-07 0)
(5.31977e-07 -1.80998e-05 0)
(1.79445e-06 -1.70542e-05 0)
(2.24778e-06 -1.4371e-05 0)
(2.53404e-06 -1.37594e-05 0)
(2.66296e-06 -1.37225e-05 0)
(2.67132e-06 -1.37913e-05 0)
(2.62935e-06 -1.3867e-05 9.74179e-21)
(2.56844e-06 -1.39153e-05 -9.69841e-21)
(2.52189e-06 -1.3958e-05 -1.85123e-20)
(2.3719e-06 -1.40388e-05 1.84077e-20)
(2.11536e-06 -1.41692e-05 1.74819e-20)
(1.89893e-06 -1.44295e-05 -1.73628e-20)
(1.7264e-06 -1.48531e-05 0)
(1.55868e-06 -1.54198e-05 1.61032e-20)
(1.31339e-06 -1.60359e-05 -2.09108e-22)
(8.45699e-07 -1.65044e-05 -1.56154e-20)
(-3.06706e-08 -1.65369e-05 0)
(-1.67148e-06 -1.56785e-05 -3.07299e-20)
(-4.58613e-06 -1.32566e-05 3.04076e-20)
(-8.51645e-06 -9.13646e-06 0)
(-1.26127e-05 -4.12561e-06 0)
(-1.59571e-05 1.30219e-06 3.43772e-20)
(-1.71961e-05 5.50721e-06 -3.39594e-20)
(-1.8596e-05 9.61483e-06 0)
(-2.04016e-06 5.19332e-08 0)
(5.04368e-07 -1.94806e-05 0)
(1.76356e-06 -1.77163e-05 0)
(2.20535e-06 -1.47696e-05 0)
(2.50963e-06 -1.40653e-05 0)
(2.67114e-06 -1.40466e-05 0)
(2.74927e-06 -1.42355e-05 0)
(2.81442e-06 -1.44899e-05 0)
(2.88512e-06 -1.47377e-05 0)
(2.95047e-06 -1.49619e-05 0)
(2.91022e-06 -1.51864e-05 0)
(2.78313e-06 -1.54201e-05 -1.77647e-20)
(2.68508e-06 -1.57433e-05 1.76498e-20)
(2.62798e-06 -1.62217e-05 0)
(2.60404e-06 -1.68969e-05 0)
(2.5781e-06 -1.77513e-05 0)
(2.4517e-06 -1.86404e-05 0)
(2.02804e-06 -1.92511e-05 0)
(9.88836e-07 -1.91098e-05 0)
(-1.26688e-06 -1.74205e-05 0)
(-5.01165e-06 -1.35529e-05 0)
(-9.46835e-06 -8.06604e-06 0)
(-1.36453e-05 -1.56986e-06 -3.38336e-20)
(-1.59497e-05 4.14351e-06 3.34412e-20)
(-1.83565e-05 9.62437e-06 0)
(-1.69883e-06 3.5846e-07 0)
(4.68088e-07 -2.06985e-05 0)
(1.72525e-06 -1.82922e-05 0)
(2.20432e-06 -1.51529e-05 0)
(2.599e-06 -1.44239e-05 0)
(2.89542e-06 -1.45237e-05 1.05645e-20)
(3.17253e-06 -1.49552e-05 -1.05339e-20)
(3.49655e-06 -1.55228e-05 0)
(3.869e-06 -1.61061e-05 0)
(4.24386e-06 -1.66441e-05 -1.9261e-20)
(4.52449e-06 -1.71111e-05 3.7859e-20)
(4.72295e-06 -1.74855e-05 -4.72787e-22)
(4.90278e-06 -1.78188e-05 -1.80068e-20)
(5.04897e-06 -1.81897e-05 0)
(5.16018e-06 -1.87089e-05 0)
(5.26204e-06 -1.9486e-05 1.59985e-20)
(5.35536e-06 -2.04648e-05 -1.58678e-20)
(5.31295e-06 -2.14141e-05 -3.06376e-20)
(4.82321e-06 -2.18421e-05 3.73281e-23)
(3.28491e-06 -2.09415e-05 3.00322e-20)
(9.21582e-09 -1.76511e-05 3.07995e-20)
(-4.48221e-06 -1.18932e-05 -3.04803e-20)
(-9.19775e-06 -4.48345e-06 3.32245e-20)
(-1.2648e-05 2.75749e-06 -3.28566e-20)
(-1.67883e-05 1.01909e-05 0)
(-9.3802e-07 1.45912e-06 0)
(4.20848e-07 -2.17434e-05 0)
(1.68116e-06 -1.88276e-05 0)
(2.25299e-06 -1.55973e-05 0)
(2.82145e-06 -1.49429e-05 0)
(3.3692e-06 -1.52889e-05 0)
(3.9897e-06 -1.61085e-05 0)
(4.74154e-06 -1.71447e-05 0)
(5.60774e-06 -1.82244e-05 0)
(6.52022e-06 -1.92452e-05 -1.97275e-20)
(7.39604e-06 -2.01341e-05 1.96324e-20)
(8.22315e-06 -2.07618e-05 0)
(8.97352e-06 -2.1147e-05 0)
(9.54663e-06 -2.13326e-05 0)
(9.88194e-06 -2.14669e-05 0)
(1.00973e-05 -2.18119e-05 0)
(1.03225e-05 -2.23355e-05 0)
(1.05073e-05 -2.30072e-05 0)
(1.04204e-05 -2.35302e-05 -3.03209e-20)
(9.51362e-06 -2.31303e-05 3.00448e-20)
(7.10878e-06 -2.05974e-05 0)
(3.08138e-06 -1.49476e-05 0)
(-2.15167e-06 -6.7374e-06 0)
(-6.75246e-06 1.86548e-06 0)
(-1.30781e-05 1.1238e-05 0)
(6.35822e-07 3.54757e-06 0)
(3.61972e-07 -2.26106e-05 0)
(1.63616e-06 -1.9374e-05 0)
(2.36257e-06 -1.61857e-05 0)
(3.19664e-06 -1.57374e-05 0)
(4.12234e-06 -1.64825e-05 0)
(5.23934e-06 -1.78479e-05 0)
(6.59397e-06 -1.95142e-05 0)
(8.14613e-06 -2.12441e-05 0)
(9.81156e-06 -2.29217e-05 0)
(1.15973e-05 -2.44779e-05 0)
(1.34369e-05 -2.56203e-05 1.90803e-20)
(1.51396e-05 -2.63019e-05 -1.89745e-20)
(1.64997e-05 -2.65167e-05 0)
(1.73223e-05 -2.62189e-05 0)
(1.79233e-05 -2.56478e-05 1.66117e-20)
(1.84908e-05 -2.50239e-05 -1.64886e-20)
(1.88255e-05 -2.44675e-05 -3.12166e-20)
(1.88828e-05 -2.40582e-05 3.09583e-20)
(1.84385e-05 -2.33585e-05 0)
(1.69693e-05 -2.12483e-05 0)
(1.37074e-05 -1.62104e-05 0)
(8.33434e-06 -7.72502e-06 3.17846e-20)
(2.42903e-06 2.26911e-06 -6.50407e-20)
(-6.63607e-06 1.38691e-05 3.32281e-20)
(3.48639e-06 7.40335e-06 0)
(2.92107e-07 -2.32972e-05 0)
(1.59782e-06 -1.99805e-05 0)
(2.54333e-06 -1.70016e-05 0)
(3.73646e-06 -1.69208e-05 0)
(5.17839e-06 -1.82373e-05 0)
(6.95586e-06 -2.03229e-05 0)
(9.1009e-06 -2.27991e-05 -1.08963e-20)
(1.1527e-05 -2.53598e-05 1.0859e-20)
(1.41029e-05 -2.79187e-05 -2.08472e-20)
(1.70164e-05 -3.03615e-05 2.07565e-20)
(2.0189e-05 -3.23167e-05 -1.97101e-20)
(2.31907e-05 -3.36038e-05 1.96061e-20)
(2.58754e-05 -3.40785e-05 0)
(2.81147e-05 -3.35869e-05 -1.77789e-20)
(2.9907e-05 -3.20861e-05 1.76606e-20)
(3.12155e-05 -2.98751e-05 0)
(3.18574e-05 -2.72092e-05 0)
(3.19216e-05 -2.45949e-05 -3.09172e-20)
(3.15501e-05 -2.20894e-05 4.5245e-22)
(3.0537e-05 -1.91565e-05 2.99471e-20)
(2.81256e-05 -1.43606e-05 0)
(2.33223e-05 -6.15524e-06 -3.09373e-20)
(1.67587e-05 4.79486e-06 3.06365e-20)
(4.38874e-06 1.91559e-05 0)
(8.26463e-06 1.48769e-05 -2.96388e-20)
(2.10891e-07 -2.37718e-05 0)
(1.56948e-06 -2.06509e-05 0)
(2.79806e-06 -1.80872e-05 0)
(4.44693e-06 -1.85228e-05 0)
(6.53933e-06 -2.05491e-05 0)
(9.12246e-06 -2.35955e-05 0)
(1.22068e-05 -2.71311e-05 0)
(1.56058e-05 -3.08448e-05 0)
(1.92417e-05 -3.45605e-05 0)
(2.35328e-05 -3.78617e-05 0)
(2.83263e-05 -4.06422e-05 0)
(3.31505e-05 -4.26013e-05 0)
(3.78635e-05 -4.3518e-05 0)
(4.22359e-05 -4.31912e-05 0)
(4.61043e-05 -4.14132e-05 0)
(4.91638e-05 -3.82245e-05 0)
(5.08976e-05 -3.36046e-05 0)
(5.14158e-05 -2.78511e-05 0)
(5.11321e-05 -2.14608e-05 0)
(5.02427e-05 -1.539e-05 0)
(4.8492e-05 -8.73052e-06 0)
(4.49676e-05 -2.71177e-07 0)
(3.86777e-05 1.09449e-05 0)
(2.28393e-05 2.82656e-05 0)
(1.66039e-05 2.867e-05 0)
(1.23771e-07 -2.40416e-05 2.65987e-21)
(1.54735e-06 -2.14153e-05 2.97941e-21)
(3.15597e-06 -1.94757e-05 -5.96607e-21)
(5.40995e-06 -2.06611e-05 1.18105e-20)
(8.17083e-06 -2.36594e-05 -1.17893e-20)
(1.15582e-05 -2.77942e-05 0)
(1.56081e-05 -3.2538e-05 1.14355e-20)
(2.00723e-05 -3.75451e-05 1.11344e-20)
(2.5281e-05 -4.23041e-05 -4.46085e-20)
(3.14351e-05 -4.64384e-05 2.20662e-20)
(3.81286e-05 -4.99398e-05 2.12461e-20)
(4.50758e-05 -5.24817e-05 -2.11429e-20)
(5.21007e-05 -5.39091e-05 -2.01245e-20)
(5.9084e-05 -5.40297e-05 3.94937e-20)
(6.57328e-05 -5.26272e-05 -5.71698e-22)
(7.15729e-05 -4.94633e-05 1.74532e-20)
(7.62008e-05 -4.42939e-05 -3.58802e-20)
(7.94404e-05 -3.68438e-05 -3.30726e-20)
(8.04871e-05 -2.68418e-05 6.44341e-20)
(8.00073e-05 -1.51567e-05 -3.13615e-20)
(7.89123e-05 -3.16327e-06 0)
(7.64176e-05 9.34656e-06 2.90383e-20)
(7.11862e-05 2.28064e-05 -5.82657e-20)
(5.33701e-05 4.6838e-05 2.92125e-20)
(3.24846e-05 5.62585e-05 2.65849e-20)
(5.45527e-08 -2.42208e-05 0)
(1.57701e-06 -2.24701e-05 0)
(3.57142e-06 -2.13875e-05 0)
(6.40057e-06 -2.35168e-05 0)
(9.99215e-06 -2.76634e-05 0)
(1.43607e-05 -3.29613e-05 0)
(1.94383e-05 -3.89687e-05 0)
(2.53949e-05 -4.50032e-05 0)
(3.25227e-05 -5.04923e-05 0)
(4.06424e-05 -5.53874e-05 0)
(4.94733e-05 -5.94875e-05 0)
(5.88106e-05 -6.25994e-05 0)
(6.8476e-05 -6.44366e-05 0)
(7.83096e-05 -6.48213e-05 0)
(8.81003e-05 -6.36076e-05 0)
(9.75454e-05 -6.0653e-05 0)
(0.000106256 -5.59033e-05 0)
(0.000113942 -4.87836e-05 0)
(0.000120013 -3.8587e-05 -3.34147e-20)
(0.000123769 -2.3772e-05 3.31642e-20)
(0.000125494 -4.66358e-06 0)
(0.000125332 1.83431e-05 0)
(0.000124829 4.23393e-05 0)
(0.000107059 8.74027e-05 0)
(6.09863e-05 0.000125667 0)
(-6.82937e-09 -2.4494e-05 0)
(1.6032e-06 -2.39846e-05 0)
(4.08478e-06 -2.39826e-05 0)
(7.63122e-06 -2.72149e-05 0)
(1.21382e-05 -3.25555e-05 0)
(1.75053e-05 -3.90678e-05 0)
(2.39609e-05 -4.58434e-05 0)
(3.18284e-05 -5.22956e-05 0)
(4.09669e-05 -5.81284e-05 0)
(5.11982e-05 -6.32144e-05 0)
(6.233e-05 -6.73497e-05 -2.28348e-20)
(7.42677e-05 -7.04345e-05 2.27324e-20)
(8.693e-05 -7.22978e-05 0)
(0.000100149 -7.28778e-05 0)
(0.00011366 -7.21131e-05 0)
(0.000126928 -6.97772e-05 0)
(0.000140071 -6.5578e-05 0)
(0.000153423 -5.96797e-05 0)
(0.000166733 -5.17214e-05 0)
(0.000179819 -4.05683e-05 0)
(0.000192428 -2.35943e-05 0)
(0.00020324 1.48097e-06 -2.80667e-20)
(0.000218613 2.77948e-05 2.78355e-20)
(0.000212586 7.40037e-05 0)
(7.75431e-05 0.000234449 0)
(-3.58956e-08 -2.50066e-05 0)
(1.72263e-06 -2.59743e-05 0)
(4.71143e-06 -2.70126e-05 0)
(8.98344e-06 -3.11677e-05 0)
(1.44353e-05 -3.73536e-05 0)
(2.12856e-05 -4.45259e-05 0)
(2.96029e-05 -5.16251e-05 0)
(3.92832e-05 -5.82159e-05 0)
(5.03397e-05 -6.40248e-05 0)
(6.26713e-05 -6.88059e-05 0)
(7.61176e-05 -7.2385e-05 0)
(9.06007e-05 -7.45567e-05 0)
(0.000106046 -7.52552e-05 0)
(0.000122311 -7.44087e-05 0)
(0.000139394 -7.20249e-05 0)
(0.000157653 -6.80023e-05 0)
(0.000176953 -6.20191e-05 0)
(0.000196897 -5.43964e-05 0)
(0.000217513 -4.48437e-05 0)
(0.000239744 -3.15675e-05 0)
(0.000265141 -1.11609e-05 0)
(0.000294737 2.17547e-05 0)
(0.000335133 7.33182e-05 0)
(0.000413518 0.000142891 0)
(0.000627674 0.000347886 0)
(-2.41206e-08 -2.57445e-05 0)
(1.97364e-06 -2.85195e-05 0)
(5.47866e-06 -3.08375e-05 0)
(1.05174e-05 -3.61216e-05 0)
(1.70081e-05 -4.33644e-05 0)
(2.50525e-05 -5.14912e-05 0)
(3.46762e-05 -5.97505e-05 0)
(4.5837e-05 -6.75022e-05 0)
(5.85035e-05 -7.43491e-05 0)
(7.25861e-05 -8.0039e-05 0)
(8.7981e-05 -8.43574e-05 0)
(0.000104619 -8.71094e-05 0)
(0.000122434 -8.81887e-05 0)
(0.000141356 -8.75162e-05 0)
(0.000161369 -8.50528e-05 0)
(0.000182559 -8.09328e-05 0)
(0.000204826 -7.56593e-05 0)
(0.000228081 -6.93169e-05 0)
(0.000252745 -6.16899e-05 0)
(0.000278982 -5.15546e-05 0)
(0.000306386 -3.67312e-05 0)
(0.000335621 -1.30104e-05 0)
(0.000369589 2.55121e-05 0)
(0.000407152 7.65251e-05 0)
(0.000411156 0.000120655 0)
(-1.7496e-08 -2.6634e-05 0)
(2.22505e-06 -3.15218e-05 0)
(6.22212e-06 -3.54509e-05 0)
(1.19957e-05 -4.224e-05 0)
(1.94334e-05 -5.10117e-05 0)
(2.85739e-05 -6.07351e-05 0)
(3.94287e-05 -7.05542e-05 0)
(5.19752e-05 -7.98261e-05 0)
(6.61647e-05 -8.81316e-05 0)
(8.19249e-05 -9.51828e-05 0)
(9.91833e-05 -0.000100748 0)
(0.000117877 -0.000104647 0)
(0.000137949 -0.00010675 0)
(0.000159345 -0.000106978 0)
(0.000182021 -0.000105305 0)
(0.000205929 -0.000101805 0)
(0.000230936 -9.66881e-05 0)
(0.000256814 -8.99872e-05 0)
(0.000283304 -8.15981e-05 0)
(0.000309908 -7.10858e-05 0)
(0.00033548 -5.64225e-05 0)
(0.000358636 -3.30652e-05 0)
(0.000377674 4.9537e-06 0)
(0.000386306 6.14494e-05 0)
(0.000362932 0.000139804 0)
(-9.70612e-09 -2.76499e-05 0)
(2.45522e-06 -3.49024e-05 0)
(6.90008e-06 -4.06868e-05 0)
(1.33378e-05 -4.92163e-05 0)
(2.1622e-05 -5.97427e-05 0)
(3.17631e-05 -7.12445e-05 0)
(4.37566e-05 -8.28111e-05 0)
(5.75723e-05 -9.37883e-05 0)
(7.31609e-05 -0.00010374 0)
(9.0462e-05 -0.000112361 0)
(0.000109413 -0.000119425 0)
(0.000129956 -0.000124756 0)
(0.000152032 -0.000128224 0)
(0.000175578 -0.00012974 0)
(0.000200513 -0.00012926 0)
(0.000226711 -0.000126786 0)
(0.000253937 -0.00012234 0)
(0.000281791 -0.000115829 0)
(0.000309632 -0.000106889 0)
(0.000336443 -9.4576e-05 0)
(0.000360652 -7.6657e-05 0)
(0.000380088 -4.85881e-05 0)
(0.000392176 -3.54391e-06 0)
(0.000392584 6.70926e-05 0)
(0.000373801 0.000175674 0)
(-4.90156e-09 -2.87676e-05 0)
(2.64735e-06 -3.86015e-05 0)
(7.48024e-06 -4.64569e-05 0)
(1.45002e-05 -5.69253e-05 0)
(2.35295e-05 -6.93818e-05 0)
(3.45566e-05 -8.28095e-05 0)
(4.75624e-05 -9.6277e-05 0)
(6.25075e-05 -0.000109111 0)
(7.93399e-05 -0.000120863 0)
(9.80001e-05 -0.000131224 0)
(0.000118428 -0.000139969 0)
(0.000140564 -0.000146923 0)
(0.000164343 -0.00015195 0)
(0.000189685 -0.000154941 0)
(0.000216472 -0.000155808 0)
(0.00024452 -0.000154463 0)
(0.000273522 -0.000150768 0)
(0.000302982 -0.00014441 0)
(0.000332138 -0.000134709 0)
(0.00035986 -0.000120275 0)
(0.000384592 -9.84765e-05 0)
(0.000404464 -6.47408e-05 0)
(0.000417761 -1.22131e-05 0)
(0.000423165 6.80409e-05 0)
(0.000420964 0.000188175 0)
(-4.25615e-09 -2.99674e-05 0)
(2.79726e-06 -4.25662e-05 0)
(7.95793e-06 -5.26786e-05 0)
(1.5476e-05 -6.52525e-05 0)
(2.51488e-05 -7.97825e-05 0)
(3.69441e-05 -9.52617e-05 0)
(5.08282e-05 -0.000110743 0)
(6.67523e-05 -0.000125539 0)
(8.46577e-05 -0.000139195 0)
(0.000104483 -0.000151401 0)
(0.000126166 -0.000161931 0)
(0.000149641 -0.000170605 0)
(0.000174834 -0.000177272 0)
(0.000201648 -0.000181795 0)
(0.000229941 -0.000184028 0)
(0.000259498 -0.000183789 0)
(0.000289988 -0.000180786 0)
(0.000320911 -0.0001745 0)
(0.000351554 -0.000163988 0)
(0.000380953 -0.000147581 0)
(0.000407945 -0.000122471 0)
(0.000431421 -8.42604e-05 0)
(0.000450828 -2.67743e-05 0)
(0.000467049 5.74345e-05 0)
(0.000483569 0.000177433 0)
(-8.08001e-09 -3.1228e-05 0)
(2.90509e-06 -4.67463e-05 0)
(8.33263e-06 -5.92789e-05 0)
(1.62669e-05 -7.41048e-05 0)
(2.64815e-05 -9.08349e-05 0)
(3.89262e-05 -0.000108474 0)
(5.35533e-05 -0.000126066 0)
(7.03028e-05 -0.000142914 0)
(8.91104e-05 -0.00015856 0)
(0.000109909 -0.000172692 0)
(0.000132633 -0.000185083 0)
(0.000157211 -0.000195545 0)
(0.00018356 -0.00020391 0)
(0.000211572 -0.000210005 0)
(0.000241097 -0.00021363 0)
(0.000271917 -0.000214512 0)
(0.000303721 -0.000212239 0)
(0.000336075 -0.00020614 0)
(0.000368414 -0.000195113 0)
(0.00040007 -0.000177381 0)
(0.000430393 -0.000150213 0)
(0.000459053 -0.000109674 0)
(0.000486507 -5.06285e-05 0)
(0.000514785 3.26079e-05 0)
(0.00054826 0.000145885 0)
(-1.60887e-08 -3.25282e-05 0)
(2.97241e-06 -5.10933e-05 0)
(8.60974e-06 -6.61867e-05 0)
(1.68799e-05 -8.33913e-05 0)
(2.75386e-05 -0.000102429 0)
(4.05173e-05 -0.000122322 0)
(5.5755e-05 -0.000142104 0)
(7.31833e-05 -0.000161077 0)
(9.273e-05 -0.000178778 0)
(0.000114324 -0.000194898 0)
(0.000137895 -0.000209206 0)
(0.000163366 -0.000221507 0)
(0.00019065 -0.000231615 0)
(0.000219638 -0.000239326 0)
(0.000250186 -0.00024439 0)
(0.000282098 -0.000246467 0)
(0.000315114 -0.000245062 0)
(0.000348907 -0.000239419 0)
(0.000383103 -0.000228383 0)
(0.000417349 -0.000210224 0)
(0.000451466 -0.000182463 0)
(0.000485737 -0.000141783 0)
(0.000521314 -8.41737e-05 0)
(0.000560655 -5.48706e-06 0)
(0.000608081 9.76709e-05 0)
(-2.77541e-08 -3.3848e-05 0)
(3.0035e-06 -5.55617e-05 0)
(8.79621e-06 -7.33348e-05 0)
(1.73286e-05 -9.30254e-05 0)
(2.83386e-05 -0.000114462 0)
(4.17428e-05 -0.000136683 0)
(5.74687e-05 -0.000158722 0)
(7.54392e-05 -0.000179876 0)
(9.55772e-05 -0.000199686 0)
(0.000117807 -0.000217841 0)
(0.000142053 -0.00023411 0)
(0.000168238 -0.000248293 0)
(0.000196275 -0.000260187 0)
(0.000226064 -0.000269564 0)
(0.000257479 -0.000276141 0)
(0.000290362 -0.000279534 0)
(0.000324524 -0.000279206 0)
(0.000359759 -0.00027438 0)
(0.000395882 -0.000263938 0)
(0.000432819 -0.000246299 0)
(0.000470757 -0.000219337 0)
(0.000510387 -0.000180387 0)
(0.000553209 -0.000126454 0)
(0.000601788 -5.46883e-05 0)
(0.000659979 3.68218e-05 0)
(-4.22453e-08 -3.51698e-05 0)
(3.00257e-06 -6.01097e-05 0)
(8.90317e-06 -8.06612e-05 0)
(1.7629e-05 -0.000102927 0)
(2.89064e-05 -0.000126837 0)
(4.26375e-05 -0.000151447 0)
(5.874e-05 -0.000175795 0)
(7.71314e-05 -0.000199178 0)
(9.77286e-05 -0.000221138 0)
(0.000120453 -0.000241367 0)
(0.000145228 -0.000259635 0)
(0.000171977 -0.000275736 0)
(0.000200621 -0.000289463 0)
(0.000231072 -0.000300571 0)
(0.000263232 -0.000308758 0)
(0.000296992 -0.000313624 0)
(0.000332241 -0.000314626 0)
(0.000368888 -0.000311017 0)
(0.000406913 -0.000301773 0)
(0.000446457 -0.000285529 0)
(0.000487958 -0.000260542 0)
(0.000532334 -0.000224754 0)
(0.000581192 -0.000176014 0)
(0.000636992 -0.00011249 0)
(0.000703043 -3.31988e-05 0)
(-5.87502e-08 -3.64788e-05 0)
(2.97572e-06 -6.47011e-05 0)
(8.94107e-06 -8.81106e-05 0)
(1.78011e-05 -0.000113024 0)
(2.92702e-05 -0.000139466 0)
(4.32402e-05 -0.000166516 0)
(5.96217e-05 -0.000193215 0)
(7.83256e-05 -0.000218863 0)
(9.92674e-05 -0.000243007 0)
(0.000122366 -0.000265342 0)
(0.000147545 -0.000285642 0)
(0.000174732 -0.000303702 0)
(0.00020386 -0.000319313 0)
(0.000234859 -0.000332227 0)
(0.000267665 -0.00034214 0)
(0.000302217 -0.000348656 0)
(0.000338478 -0.000351258 0)
(0.00037646 -0.000349261 0)
(0.000416274 -0.000341773 0)
(0.00045821 -0.000327661 0)
(0.000502852 -0.000305557 0)
(0.00055121 -0.000273935 0)
(0.000604858 -0.00023131 0)
(0.000666004 -0.00017657 0)
(0.000737461 -0.000109404 0)
(-7.63421e-08 -3.77632e-05 0)
(2.92774e-06 -6.93048e-05 0)
(8.92267e-06 -9.56347e-05 0)
(1.78635e-05 -0.000123253 0)
(2.94593e-05 -0.000152274 0)
(4.35917e-05 -0.000181801 0)
(6.01651e-05 -0.000210884 0)
(7.90882e-05 -0.000238827 0)
(0.000100273 -0.000265182 0)
(0.00012364 -0.000289652 0)
(0.000149115 -0.000312016 0)
(0.000176635 -0.000332076 0)
(0.000206142 -0.000349627 0)
(0.00023759 -0.000364431 0)
(0.000270946 -0.000376194 0)
(0.000306198 -0.000384544 0)
(0.000343374 -0.000389008 0)
(0.000382566 -0.000388985 0)
(0.000423981 -0.000383728 0)
(0.000468003 -0.000372333 0)
(0.000515282 -0.000353766 0)
(0.00056683 -0.000326944 0)
(0.0006241 -0.000290898 0)
(0.000689017 -0.000245029 0)
(0.000763905 -0.000189417 0)
(-9.42647e-08 -3.9014e-05 0)
(2.86453e-06 -7.38954e-05 0)
(8.85801e-06 -0.000103192 0)
(1.7836e-05 -0.00013356 0)
(2.95011e-05 -0.000165195 0)
(4.3729e-05 -0.000197227 0)
(6.04195e-05 -0.000228717 0)
(7.94781e-05 -0.000258978 0)
(0.000100818 -0.000287567 0)
(0.00012436 -0.000314196 0)
(0.000150037 -0.000338655 0)
(0.000177793 -0.000360756 0)
(0.000207584 -0.000380307 0)
(0.000239386 -0.000397086 0)
(0.000273195 -0.000410822 0)
(0.000309041 -0.000421179 0)
(0.000347003 -0.000427742 0)
(0.000387235 -0.000430005 0)
(0.000430005 -0.000427362 0)
(0.000475747 -0.000419119 0)
(0.000525125 -0.000404526 0)
(0.000579094 -0.000382853 0)
(0.00063895 -0.000353524 0)
(0.000706326 -0.000316298 0)
(0.000783124 -0.000271492 0)
(-1.1174e-07 -4.02253e-05 0)
(2.78987e-06 -7.84521e-05 0)
(8.75798e-06 -0.000110749 0)
(1.77342e-05 -0.000143896 0)
(2.94204e-05 -0.00017817 0)
(4.36855e-05 -0.000212727 0)
(6.04259e-05 -0.000246641 0)
(7.95472e-05 -0.000279235 0)
(0.000100963 -0.000310075 0)
(0.000124597 -0.000338886 0)
(0.000150389 -0.000365468 0)
(0.000178291 -0.00038965 0)
(0.000208274 -0.000411259 0)
(0.000240332 -0.000430093 0)
(0.000274488 -0.000445915 0)
(0.000310803 -0.000458432 0)
(0.000349394 -0.000467296 0)
(0.000390456 -0.000472092 0)
(0.000434292 -0.000472351 0)
(0.000481354 -0.000467559 0)
(0.000532282 -0.0004572 0)
(0.000587948 -0.000440818 0)
(0.000649476 -0.000418123 0)
(0.000718231 -0.000389122 0)
(0.000795747 -0.000354275 0)
(-1.28324e-07 -4.13929e-05 0)
(2.70827e-06 -8.29586e-05 0)
(8.62969e-06 -0.000118276 0)
(1.75729e-05 -0.000154223 0)
(2.92372e-05 -0.000191149 0)
(4.3488e-05 -0.000228241 0)
(6.02195e-05 -0.000264589 0)
(7.93363e-05 -0.000299525 0)
(0.000100755 -0.000332629 0)
(0.000124404 -0.000363638 0)
(0.000150229 -0.000392369 0)
(0.00017819 -0.000418668 0)
(0.000208271 -0.000442385 0)
(0.000240483 -0.000463346 0)
(0.000274865 -0.000481349 0)
(0.000311505 -0.000496151 0)
(0.000350543 -0.00050747 0)
(0.000392197 -0.000514983 0)
(0.000436783 -0.000518339 0)
(0.000484745 -0.000517178 0)
(0.000536681 -0.00051117 0)
(0.000593365 -0.000500066 0)
(0.000655756 -0.000483781 0)
(0.000724979 -0.00046249 0)
(0.000802262 -0.000436727 0)
(-1.43481e-07 -4.25149e-05 0)
(2.62191e-06 -8.74019e-05 0)
(8.48079e-06 -0.000125748 0)
(1.73623e-05 -0.000164505 0)
(2.8968e-05 -0.000204089 0)
(4.31585e-05 -0.000243718 0)
(5.98264e-05 -0.0002825 0)
(7.88782e-05 -0.000319782 0)
(0.000100232 -0.000355156 0)
(0.000123822 -0.000388375 0)
(0.000149598 -0.000419273 0)
(0.000177531 -0.000447719 0)
(0.000207613 -0.000473584 0)
(0.000239865 -0.000496727 0)
(0.000274344 -0.000516984 0)
(0.000311148 -0.000534163 0)
(0.000350431 -0.000548045 0)
(0.00039242 -0.000558391 0)
(0.000437426 -0.000564955 0)
(0.000485868 -0.000567501 0)
(0.000538287 -0.000565845 0)
(0.000595359 -0.000559893 0)
(0.000657891 -0.000549703 0)
(0.000726799 -0.000535554 0)
(0.000803056 -0.000518017 0)
(-1.57025e-07 -4.35906e-05 0)
(2.53377e-06 -9.17719e-05 0)
(8.31496e-06 -0.000133146 0)
(1.71116e-05 -0.000174711 0)
(2.86245e-05 -0.00021695 0)
(4.27126e-05 -0.00025911 0)
(5.92675e-05 -0.000300319 0)
(7.81959e-05 -0.000339942 0)
(9.94208e-05 -0.000377586 0)
(0.000122879 -0.00041302 0)
(0.000148527 -0.000446096 0)
(0.000176341 -0.000476706 0)
(0.000206321 -0.000504747 0)
(0.000238496 -0.00053011 0)
(0.000272928 -0.000552669 0)
(0.000309723 -0.00057228 0)
(0.000349039 -0.000588786 0)
(0.000391096 -0.00060202 0)
(0.000436189 -0.000611824 0)
(0.000484701 -0.000618066 0)
(0.000537109 -0.000620671 0)
(0.000593993 -0.000619659 0)
(0.00065602 -0.000615183 0)
(0.00072393 -0.000607588 0)
(0.000798487 -0.000597448 0)
(-1.68657e-07 -4.46201e-05 0)
(2.44452e-06 -9.60603e-05 0)
(8.13677e-06 -0.00014045 0)
(1.68256e-05 -0.000184815 0)
(2.82157e-05 -0.000229695 0)
(4.21624e-05 -0.000274371 0)
(5.85565e-05 -0.000317994 0)
(7.73078e-05 -0.000359946 0)