/*--------------------------------*- C++ -*----------------------------------*\
  =========                 |
  \\      /  F ield         | OpenFOAM: The Open Source CFD Toolbox
   \\    /   O peration     | Website:  https://openfoam.org
    \\  /    A nd           | Version:  13
     \\/     M anipulation  |
\*---------------------------------------------------------------------------*/
FoamFile
{
    format      ascii;
    class       volScalarField;
    location    "10";
    object      p;
}
// * * * * * * * * * * * * * * * * * * * * * * * * * * * * * * * * * * * * * //

dimensions      [0 2 -2 0 0 0 0];

internalField   nonuniform List<scalar> 
6440
(
139.039
139.03
139.016
139.018
139.052
139.111
139.171
139.22
139.258
139.289
139.316
139.339
139.361
139.376
139.385
139.391
139.396
139.399
139.401
139.404
139.409
139.415
139.418
139.416
139.414
139.028
139.017
139.002
139.004
139.032
139.085
139.143
139.191
139.228
139.258
139.289
139.322
139.353
139.379
139.396
139.405
139.408
139.407
139.406
139.406
139.41
139.415
139.416
139.413
139.41
139.012
139.007
138.998
138.997
139.012
139.038
139.062
139.083
139.104
139.132
139.17
139.217
139.268
139.315
139.354
139.38
139.394
139.396
139.393
139.39
139.392
139.399
139.405
139.406
139.406
138.999
139.003
138.997
138.971
138.936
138.903
138.88
138.873
138.885
138.919
138.975
139.047
139.125
139.198
139.262
139.314
139.349
139.364
139.364
139.361
139.363
139.375
139.39
139.401
139.406
138.988
138.992
138.945
138.846
138.737
138.648
138.59
138.57
138.589
138.647
138.736
138.844
138.958
139.065
139.16
139.238
139.298
139.332
139.34
139.338
139.343
139.358
139.383
139.402
139.411
138.961
138.928
138.785
138.597
138.427
138.299
138.224
138.207
138.248
138.342
138.48
138.639
138.798
138.944
139.073
139.18
139.263
139.316
139.336
139.337
139.342
139.356
139.382
139.406
139.415
138.852
138.746
138.519
138.277
138.073
137.921
137.836
137.829
137.896
138.036
138.236
138.458
138.67
138.859
139.022
139.157
139.262
139.331
139.359
139.361
139.36
139.366
139.385
139.402
139.408
138.647
138.5
138.248
137.99
137.767
137.597
137.505
137.511
137.601
137.789
138.052
138.333
138.593
138.821
139.015
139.175
139.298
139.377
139.408
139.407
139.392
139.377
139.375
139.381
139.385
138.471
138.328
138.083
137.829
137.603
137.43
137.342
137.353
137.448
137.667
137.971
138.291
138.582
138.837
139.055
139.233
139.365
139.445
139.471
139.456
139.419
139.378
139.354
139.35
139.353
138.423
138.291
138.059
137.818
137.603
137.444
137.371
137.374
137.478
137.717
138.031
138.352
138.641
138.901
139.125
139.304
139.431
139.499
139.512
139.482
139.426
139.37
139.337
139.329
139.327
138.493
138.355
138.148
137.926
137.724
137.577
137.515
137.539
137.674
137.906
138.184
138.463
138.726
138.969
139.179
139.341
139.448
139.501
139.503
139.464
139.407
139.357
139.329
139.32
139.316
138.628
138.491
138.314
138.123
137.943
137.809
137.749
137.777
137.898
138.086
138.309
138.538
138.772
138.987
139.166
139.298
139.381
139.419
139.42
139.398
139.372
139.353
139.338
139.324
139.312
138.778
138.681
138.537
138.376
138.216
138.088
138.016
138.016
138.089
138.223
138.39
138.573
138.764
138.931
139.066
139.165
139.23
139.266
139.283
139.295
139.317
139.349
139.364
139.339
139.313
138.943
138.9
138.792
138.651
138.5
138.371
138.282
138.248
138.274
138.351
138.452
138.573
138.694
138.8
138.893
138.973
139.033
139.077
139.115
139.167
139.243
139.334
139.388
139.354
139.302
139.176
139.162
139.066
138.924
138.767
138.624
138.512
138.443
138.422
138.435
138.463
138.507
138.557
138.618
138.69
138.762
138.823
138.879
138.946
139.034
139.15
139.28
139.358
139.301
139.226
139.474
139.443
139.33
139.169
138.992
138.825
138.679
138.568
138.495
138.438
138.397
138.38
138.389
138.43
138.491
138.556
138.622
138.698
138.789
138.898
139.023
139.149
139.213
139.12
139.013
139.734
139.673
139.535
139.352
139.154
138.958
138.777
138.621
138.494
138.383
138.297
138.243
138.232
138.26
138.311
138.372
138.446
138.536
138.64
138.748
138.85
138.933
138.943
138.804
138.668
139.879
139.803
139.649
139.451
139.235
139.017
138.809
138.62
138.446
138.296
138.184
138.115
138.093
138.113
138.159
138.225
138.306
138.403
138.506
138.604
138.684
138.71
138.653
138.466
138.287
139.916
139.836
139.675
139.471
139.244
139.013
138.787
138.572
138.371
138.204
138.078
138.002
137.979
138
138.054
138.125
138.215
138.315
138.422
138.529
138.606
138.625
138.544
138.323
138.083
139.877
139.789
139.626
139.419
139.19
138.954
138.719
138.491
138.283
138.108
137.978
137.902
137.888
137.924
137.986
138.068
138.166
138.277
138.4
138.531
138.649
138.719
138.714
138.608
138.392
139.784
139.687
139.528
139.329
139.106
138.875
138.644
138.42
138.215
138.039
137.907
137.836
137.832
137.876
137.944
138.032
138.14
138.266
138.412
138.575
138.742
138.889
139.019
139.226
139.755
139.656
139.557
139.414
139.232
139.027
138.809
138.59
138.376
138.174
137.992
137.851
137.778
137.777
137.824
137.897
137.988
138.103
138.242
138.406
138.589
138.781
138.963
139.15
139.469
140.106
139.512
139.424
139.303
139.142
138.956
138.754
138.549
138.348
138.151
137.968
137.822
137.752
137.754
137.801
137.873
137.963
138.085
138.238
138.416
138.612
138.815
139.008
139.205
139.483
139.934
139.385
139.311
139.209
139.068
138.903
138.719
138.528
138.339
138.155
137.979
137.839
137.771
137.763
137.805
137.883
137.975
138.097
138.253
138.435
138.632
138.833
139.02
139.196
139.415
139.735
139.298
139.233
139.145
139.022
138.876
138.712
138.538
138.363
138.192
138.03
137.899
137.83
137.814
137.857
137.932
138.021
138.141
138.294
138.468
138.653
138.839
139.006
139.152
139.319
139.548
139.259
139.2
139.118
139.008
138.88
138.736
138.582
138.424
138.267
138.122
138.004
137.935
137.921
137.956
138.016
138.099
138.214
138.355
138.511
138.675
138.834
138.972
139.089
139.218
139.387
139.27
139.212
139.126
139.025
138.913
138.79
138.659
138.521
138.384
138.258
138.153
138.088
138.072
138.092
138.134
138.207
138.31
138.43
138.56
138.697
138.825
138.931
139.023
139.124
139.248
139.329
139.259
139.164
139.068
138.968
138.866
138.759
138.646
138.532
138.424
138.334
138.272
138.245
138.244
138.274
138.336
138.421
138.515
138.615
138.723
138.817
138.894
138.966
139.038
139.127
139.432
139.343
139.231
139.13
139.038
138.95
138.864
138.775
138.684
138.595
138.516
138.452
138.412
138.402
138.428
138.478
138.541
138.607
138.679
138.751
138.814
138.867
138.916
138.963
139.017
139.558
139.461
139.327
139.213
139.119
139.039
138.966
138.895
138.823
138.749
138.678
138.614
138.575
138.572
138.594
138.628
138.666
138.7
138.742
138.78
138.819
138.849
138.874
138.893
138.915
139.657
139.587
139.446
139.322
139.226
139.148
139.084
139.026
138.969
138.91
138.849
138.799
138.774
138.771
138.777
138.781
138.784
138.793
138.808
138.822
138.832
138.835
138.834
138.826
138.81
139.695
139.67
139.566
139.455
139.365
139.298
139.248
139.208
139.171
139.134
139.095
139.062
139.03
138.998
138.968
138.942
138.915
138.895
138.88
138.867
138.845
138.825
138.796
138.752
138.704
139.698
139.699
139.652
139.581
139.524
139.487
139.466
139.455
139.449
139.44
139.422
139.389
139.329
139.246
139.166
139.097
139.036
138.988
138.945
138.901
138.858
138.809
138.746
138.674
138.595
139.698
139.703
139.691
139.667
139.655
139.664
139.686
139.715
139.744
139.767
139.763
139.704
139.584
139.447
139.328
139.23
139.148
139.073
139.001
138.932
138.86
138.779
138.69
138.59
138.49
139.701
139.702
139.699
139.702
139.727
139.773
139.833
139.896
139.952
139.989
139.99
139.898
139.74
139.583
139.452
139.343
139.242
139.143
139.045
138.947
138.845
138.739
138.627
138.511
138.39
139.707
139.707
139.704
139.714
139.752
139.813
139.887
139.962
140.025
140.056
140.061
139.961
139.811
139.669
139.544
139.426
139.308
139.187
139.064
138.941
138.818
138.694
138.568
138.435
138.295
139.705
139.705
139.704
139.714
139.747
139.801
139.871
139.946
140.013
140.04
140.032
139.948
139.833
139.713
139.592
139.466
139.333
139.196
139.058
138.921
138.785
138.648
138.508
138.362
138.206
139.691
139.692
139.696
139.702
139.722
139.76
139.815
139.873
139.922
139.956
139.941
139.887
139.808
139.707
139.589
139.459
139.32
139.179
139.037
138.894
138.748
138.601
138.45
138.291
138.122
139.674
139.673
139.674
139.683
139.693
139.701
139.707
139.711
139.759
139.806
139.799
139.78
139.735
139.654
139.544
139.418
139.285
139.148
139.006
138.859
138.707
138.552
138.391
138.223
138.042
139.688
139.673
139.663
139.664
139.651
139.613
139.57
139.569
139.6
139.635
139.641
139.651
139.637
139.576
139.479
139.363
139.237
139.105
138.966
138.818
138.663
138.502
138.335
138.157
137.966
139.754
139.721
139.696
139.686
139.655
139.599
139.541
139.528
139.514
139.524
139.52
139.543
139.541
139.495
139.41
139.303
139.184
139.057
138.92
138.773
138.617
138.452
138.278
138.094
137.895
139.855
139.818
139.795
139.776
139.729
139.644
139.578
139.544
139.537
139.507
139.471
139.476
139.469
139.426
139.348
139.247
139.132
139.008
138.873
138.727
138.569
138.402
138.224
138.034
137.831
139.961
139.935
139.911
139.883
139.809
139.704
139.654
139.623
139.617
139.548
139.477
139.454
139.428
139.378
139.3
139.2
139.086
138.961
138.827
138.681
138.523
138.354
138.173
137.981
137.772
140.065
140.042
140.015
139.977
139.898
139.817
139.759
139.748
139.711
139.613
139.523
139.467
139.417
139.353
139.268
139.164
139.047
138.921
138.785
138.639
138.48
138.31
138.128
137.932
137.721
140.158
140.137
140.106
140.072
140.011
139.959
139.915
139.875
139.801
139.696
139.595
139.508
139.43
139.346
139.249
139.138
139.017
138.887
138.749
138.601
138.441
138.27
138.087
137.89
137.678
140.23
140.22
140.196
140.174
140.142
140.111
140.071
139.999
139.903
139.795
139.678
139.557
139.451
139.348
139.238
139.12
138.994
138.86
138.719
138.568
138.408
138.236
138.052
137.854
137.642
140.268
140.275
140.267
140.256
140.25
140.243
140.198
140.106
140.001
139.885
139.745
139.596
139.47
139.352
139.231
139.107
138.976
138.839
138.694
138.541
138.379
138.207
138.023
137.826
137.614
140.262
140.278
140.288
140.296
140.305
140.322
140.27
140.173
140.066
139.941
139.778
139.618
139.484
139.355
139.227
139.096
138.961
138.821
138.673
138.519
138.356
138.183
137.999
137.803
137.594
140.229
140.242
140.261
140.29
140.312
140.332
140.275
140.188
140.085
139.953
139.784
139.627
139.489
139.354
139.22
139.086
138.948
138.805
138.656
138.5
138.337
138.164
137.981
137.787
137.579
140.199
140.201
140.217
140.255
140.287
140.282
140.234
140.162
140.064
139.931
139.771
139.625
139.484
139.347
139.212
139.075
138.935
138.791
138.641
138.485
138.321
138.149
137.968
137.775
137.572
140.188
140.177
140.175
140.194
140.228
140.21
140.176
140.111
140.016
139.888
139.746
139.608
139.471
139.336
139.2
139.063
138.922
138.778
138.627
138.471
138.309
138.138
137.958
137.769
137.569
140.193
140.173
140.143
140.125
140.135
140.129
140.112
140.05
139.954
139.836
139.714
139.586
139.455
139.322
139.187
139.05
138.909
138.765
138.615
138.46
138.298
138.13
137.953
137.767
137.571
140.21
140.183
140.125
140.07
140.036
140.049
140.043
139.986
139.899
139.795
139.682
139.561
139.435
139.305
139.172
139.036
138.896
138.752
138.604
138.45
138.291
138.124
137.95
137.769
137.577
140.239
140.209
140.136
140.069
140.02
140.013
139.995
139.941
139.86
139.762
139.653
139.537
139.414
139.287
139.155
139.021
138.883
138.74
138.594
138.442
138.285
138.121
137.951
137.773
137.587
140.277
140.255
140.202
140.136
140.1
140.042
139.986
139.924
139.839
139.738
139.63
139.514
139.393
139.268
139.139
139.006
138.869
138.729
138.584
138.435
138.28
138.12
137.953
137.781
137.599
140.321
140.312
140.291
140.252
140.218
140.105
140.009
139.925
139.827
139.721
139.61
139.494
139.374
139.25
139.122
138.991
138.856
138.718
138.575
138.429
138.277
138.121
137.958
137.789
137.615
140.361
140.368
140.374
140.375
140.32
140.164
140.039
139.93
139.82
139.708
139.593
139.475
139.355
139.232
139.105
138.976
138.843
138.707
138.567
138.423
138.275
138.122
137.964
137.801
137.631
140.39
140.411
140.428
140.447
140.367
140.194
140.057
139.932
139.812
139.694
139.576
139.457
139.336
139.214
139.089
138.961
138.83
138.696
138.559
138.419
138.274
138.125
137.972
137.813
137.649
140.39
140.418
140.44
140.459
140.366
140.194
140.054
139.924
139.8
139.678
139.558
139.437
139.317
139.195
139.071
138.946
138.817
138.686
138.552
138.414
138.273
138.128
137.979
137.826
137.668
140.353
140.38
140.411
140.425
140.331
140.17
140.031
139.904
139.778
139.656
139.535
139.416
139.296
139.176
139.054
138.93
138.804
138.675
138.544
138.41
138.273
138.132
137.988
137.839
137.688
140.298
140.318
140.353
140.362
140.272
140.129
139.995
139.871
139.749
139.629
139.511
139.392
139.274
139.155
139.035
138.913
138.79
138.664
138.536
138.406
138.272
138.136
137.996
137.854
137.707
140.237
140.251
140.286
140.29
140.193
140.073
139.951
139.831
139.713
139.597
139.481
139.366
139.25
139.133
139.015
138.896
138.776
138.653
138.528
138.402
138.272
138.14
138.006
137.867
137.727
140.183
140.19
140.221
140.216
140.11
140.004
139.898
139.786
139.674
139.562
139.451
139.337
139.224
139.11
138.995
138.879
138.761
138.642
138.52
138.397
138.272
138.144
138.014
137.882
137.746
140.139
140.14
140.157
140.134
140.034
139.942
139.844
139.739
139.633
139.525
139.416
139.307
139.197
139.085
138.973
138.86
138.746
138.63
138.512
138.393
138.272
138.148
138.023
137.895
137.766
140.109
140.108
140.107
140.055
139.972
139.885
139.791
139.692
139.59
139.486
139.382
139.275
139.168
139.06
138.951
138.841
138.73
138.617
138.504
138.388
138.271
138.152
138.031
137.909
137.784
140.083
140.085
140.069
139.987
139.912
139.831
139.739
139.644
139.546
139.447
139.345
139.243
139.138
139.034
138.928
138.821
138.714
138.605
138.495
138.383
138.27
138.156
138.04
137.921
137.803
140.057
140.059
140.024
139.927
139.858
139.778
139.689
139.597
139.502
139.406
139.308
139.208
139.108
139.007
138.904
138.801
138.697
138.592
138.485
138.378
138.269
138.159
138.047
137.935
137.82
140.029
140.032
139.973
139.88
139.805
139.725
139.64
139.55
139.458
139.365
139.269
139.174
139.077
138.979
138.88
138.78
138.68
138.578
138.476
138.372
138.267
138.161
138.055
137.946
137.837
140.004
140.005
139.924
139.842
139.758
139.675
139.591
139.504
139.414
139.323
139.232
139.138
139.045
138.95
138.855
138.759
138.662
138.564
138.466
138.366
138.265
138.164
138.061
137.958
137.853
139.979
139.977
139.874
139.803
139.711
139.626
139.542
139.457
139.37
139.282
139.193
139.104
139.013
138.922
138.83
138.738
138.644
138.55
138.455
138.36
138.263
138.165
138.067
137.967
137.868
139.954
139.943
139.824
139.754
139.664
139.577
139.494
139.41
139.326
139.24
139.155
139.068
138.981
138.894
138.805
138.716
138.627
138.536
138.445
138.353
138.26
138.167
138.072
137.978
137.882
139.923
139.897
139.773
139.703
139.614
139.528
139.446
139.364
139.282
139.199
139.116
139.034
138.95
138.865
138.781
138.695
138.609
138.522
138.435
138.347
138.258
138.168
138.079
137.987
137.897
139.883
139.842
139.724
139.647
139.563
139.478
139.397
139.317
139.238
139.158
139.079
138.999
138.919
138.838
138.756
138.675
138.592
138.509
138.425
138.34
138.255
138.17
138.083
137.998
137.91
139.83
139.777
139.671
139.59
139.508
139.427
139.348
139.271
139.194
139.118
139.042
138.966
138.888
138.811
138.733
138.654
138.575
138.496
138.415
138.334
138.253
138.171
138.089
138.006
137.924
139.768
139.705
139.613
139.53
139.452
139.374
139.298
139.224
139.151
139.078
139.006
138.932
138.859
138.785
138.71
138.635
138.559
138.483
138.406
138.328
138.251
138.173
138.094
138.016
137.936
139.694
139.624
139.546
139.468
139.393
139.32
139.248
139.178
139.108
139.039
138.969
138.9
138.83
138.759
138.688
138.616
138.544
138.47
138.397
138.323
138.248
138.174
138.099
138.023
137.948
139.608
139.539
139.474
139.402
139.334
139.265
139.198
139.132
139.066
139
138.934
138.868
138.801
138.734
138.666
138.598
138.528
138.458
138.388
138.317
138.246
138.175
138.103
138.031
137.959
139.517
139.455
139.4
139.337
139.274
139.211
139.148
139.086
139.024
138.962
138.899
138.837
138.773
138.709
138.645
138.579
138.513
138.447
138.379
138.312
138.244
138.175
138.107
138.038
137.97
139.427
139.375
139.328
139.271
139.216
139.158
139.1
139.042
138.983
138.925
138.866
138.806
138.746
138.686
138.624
138.562
138.499
138.435
138.371
138.306
138.241
138.176
138.11
138.045
137.979
139.341
139.299
139.259
139.209
139.159
139.107
139.054
138.999
138.945
138.89
138.834
138.778
138.721
138.663
138.604
138.545
138.485
138.424
138.363
138.301
138.239
138.176
138.114
138.05
137.988
139.263
139.228
139.194
139.15
139.106
139.059
139.01
138.959
138.908
138.856
138.804
138.75
138.696
138.641
138.586
138.529
138.472
138.414
138.355
138.296
138.236
138.177
138.116
138.057
137.997
139.192
139.163
139.134
139.097
139.057
139.014
138.969
138.923
138.875
138.826
138.776
138.726
138.674
138.622
138.568
138.514
138.46
138.404
138.348
138.291
138.235
138.177
138.12
138.062
138.006
139.128
139.104
139.08
139.046
139.012
138.973
138.932
138.889
138.844
138.798
138.751
138.703
138.654
138.604
138.553
138.501
138.449
138.396
138.342
138.288
138.234
138.179
138.124
138.07
138.014
139.071
139.051
139.031
139.002
138.971
138.935
138.898
138.858
138.816
138.773
138.728
138.683
138.636
138.588
138.539
138.49
138.44
138.389
138.337
138.286
138.233
138.181
138.129
138.076
138.024
139.021
139.004
138.987
138.961
138.934
138.902
138.867
138.83
138.791
138.75
138.708
138.664
138.62
138.574
138.528
138.48
138.432
138.383
138.334
138.284
138.234
138.184
138.134
138.084
138.033
138.976
138.961
138.947
138.924
138.9
138.87
138.839
138.804
138.768
138.729
138.689
138.648
138.605
138.562
138.517
138.472
138.425
138.378
138.331
138.283
138.235
138.187
138.139
138.091
138.042
138.937
138.924
138.911
138.891
138.869
138.842
138.812
138.78
138.746
138.709
138.672
138.632
138.592
138.55
138.508
138.464
138.42
138.374
138.329
138.283
138.237
138.191
138.144
138.098
138.051
138.902
138.891
138.879
138.861
138.84
138.815
138.788
138.757
138.725
138.691
138.655
138.618
138.579
138.539
138.499
138.457
138.414
138.371
138.327
138.282
138.238
138.193
138.148
138.103
138.058
138.872
138.862
138.851
138.833
138.815
138.791
138.765
138.736
138.706
138.673
138.639
138.604
138.567
138.529
138.49
138.45
138.409
138.367
138.324
138.282
138.239
138.195
138.152
138.108
138.064
138.846
138.837
138.827
138.81
138.792
138.769
138.744
138.717
138.688
138.657
138.625
138.591
138.555
138.519
138.481
138.443
138.403
138.363
138.322
138.28
138.239
138.197
138.154
138.112
138.07
138.825
138.816
138.807
138.79
138.772
138.75
138.726
138.7
138.673
138.643
138.612
138.579
138.545
138.51
138.474
138.436
138.398
138.359
138.319
138.279
138.239
138.198
138.156
138.115
138.075
138.81
138.801
138.792
138.775
138.758
138.736
138.713
138.688
138.661
138.632
138.602
138.57
138.537
138.503
138.468
138.431
138.394
138.356
138.317
138.278
138.239
138.199
138.159
138.119
138.08
138.8
138.791
138.783
138.766
138.749
138.728
138.706
138.681
138.654
138.626
138.596
138.565
138.533
138.499
138.464
138.429
138.392
138.355
138.317
138.279
138.241
138.202
138.163
138.124
138.085
138.796
138.787
138.779
138.762
138.747
138.726
138.704
138.679
138.653
138.625
138.595
138.564
138.532
138.498
138.464
138.429
138.393
138.356
138.319
138.282
138.244
138.206
138.168
138.13
138.093
138.798
138.789
138.781
138.765
138.749
138.729
138.707
138.683
138.656
138.628
138.598
138.567
138.534
138.501
138.467
138.432
138.396
138.36
138.323
138.286
138.249
138.212
138.175
138.137
138.101
138.805
138.795
138.788
138.771
138.756
138.736
138.713
138.689
138.662
138.633
138.603
138.572
138.539
138.506
138.471
138.436
138.401
138.365
138.328
138.292
138.255
138.218
138.182
138.145
138.109
138.815
138.805
138.798
138.78
138.763
138.743
138.721
138.695
138.668
138.639
138.609
138.578
138.545
138.511
138.476
138.441
138.406
138.37
138.334
138.297
138.261
138.225
138.189
138.153
138.117
138.831
138.817
138.811
138.791
138.772
138.75
138.726
138.7
138.673
138.644
138.613
138.582
138.549
138.515
138.48
138.445
138.41
138.374
138.338
138.302
138.266
138.23
138.194
138.158
138.123
138.875
138.841
138.826
138.801
138.777
138.754
138.729
138.702
138.675
138.646
138.615
138.583
138.551
138.517
138.483
138.448
138.412
138.377
138.341
138.305
138.269
138.233
138.197
138.162
138.127
138.953
138.874
138.834
138.805
138.779
138.754
138.729
138.703
138.675
138.646
138.615
138.584
138.551
138.518
138.483
138.448
138.413
138.377
138.342
138.306
138.27
138.234
138.198
138.163
138.128
141.685
141.68
141.674
141.665
141.657
141.649
141.642
141.637
141.632
141.63
141.629
141.633
141.644
141.666
141.693
141.721
141.741
141.754
141.763
141.774
141.788
141.799
141.802
141.8
141.797
141.687
141.682
141.675
141.668
141.66
141.651
141.642
141.633
141.624
141.616
141.61
141.611
141.621
141.642
141.67
141.699
141.725
141.746
141.764
141.779
141.789
141.795
141.8
141.799
141.795
141.682
141.679
141.674
141.67
141.664
141.655
141.641
141.622
141.598
141.574
141.552
141.538
141.538
141.554
141.582
141.618
141.658
141.699
141.737
141.768
141.789
141.799
141.801
141.795
141.79
141.667
141.668
141.669
141.669
141.665
141.654
141.631
141.595
141.546
141.493
141.442
141.401
141.382
141.389
141.417
141.46
141.516
141.58
141.646
141.704
141.75
141.779
141.788
141.784
141.779
141.649
141.653
141.658
141.661
141.657
141.64
141.604
141.544
141.463
141.376
141.291
141.219
141.174
141.162
141.179
141.225
141.298
141.387
141.483
141.574
141.654
141.714
141.751
141.764
141.765
141.631
141.635
141.642
141.646
141.64
141.613
141.561
141.474
141.359
141.235
141.116
141.013
140.94
140.905
140.911
140.959
141.044
141.15
141.271
141.395
141.509
141.609
141.687
141.737
141.75
141.614
141.615
141.62
141.624
141.616
141.581
141.513
141.401
141.257
141.104
140.954
140.823
140.726
140.673
140.667
140.709
140.796
140.917
141.059
141.207
141.349
141.481
141.598
141.688
141.723
141.596
141.594
141.596
141.597
141.588
141.551
141.477
141.357
141.198
141.022
140.85
140.697
140.582
140.516
140.503
140.534
140.614
140.736
140.887
141.053
141.217
141.372
141.511
141.626
141.684
141.578
141.572
141.57
141.569
141.56
141.528
141.461
141.348
141.189
141.007
140.826
140.662
140.534
140.458
140.439
140.457
140.525
140.642
140.797
140.973
141.153
141.323
141.474
141.598
141.666
141.561
141.552
141.548
141.545
141.536
141.512
141.46
141.363
141.222
141.051
140.871
140.7
140.561
140.471
140.44
140.457
140.521
140.638
140.798
140.982
141.171
141.349
141.507
141.634
141.704
141.552
141.54
141.532
141.526
141.52
141.506
141.473
141.406
141.297
141.152
140.986
140.819
140.673
140.568
140.519
140.529
140.594
140.714
140.878
141.068
141.262
141.444
141.602
141.725
141.803
141.558
141.541
141.529
141.518
141.513
141.508
141.494
141.46
141.39
141.282
141.146
140.998
140.86
140.753
140.696
140.698
140.758
140.875
141.037
141.225
141.418
141.597
141.751
141.867
141.945
141.582
141.563
141.545
141.527
141.517
141.516
141.516
141.504
141.47
141.402
141.304
141.189
141.076
140.984
140.932
140.93
140.981
141.086
141.238
141.417
141.602
141.776
141.923
142.032
142.094
141.621
141.604
141.584
141.561
141.542
141.532
141.533
141.534
141.521
141.484
141.417
141.331
141.244
141.173
141.131
141.133
141.181
141.273
141.414
141.585
141.766
141.936
142.079
142.181
142.228
141.661
141.652
141.641
141.624
141.598
141.573
141.557
141.554
141.549
141.529
141.482
141.414
141.339
141.278
141.245
141.251
141.299
141.392
141.529
141.696
141.875
142.046
142.191
142.292
142.335
141.691
141.694
141.696
141.692
141.67
141.633
141.598
141.574
141.557
141.536
141.5
141.447
141.386
141.335
141.312
141.325
141.377
141.471
141.604
141.764
141.937
142.105
142.248
142.347
142.391
141.703
141.716
141.733
141.745
141.735
141.699
141.647
141.595
141.556
141.52
141.479
141.428
141.377
141.339
141.328
141.352
141.412
141.507
141.635
141.787
141.953
142.115
142.253
142.35
142.391
141.689
141.711
141.741
141.768
141.776
141.75
141.687
141.607
141.534
141.473
141.416
141.362
141.316
141.287
141.286
141.318
141.385
141.483
141.61
141.759
141.919
142.075
142.208
142.301
142.338
141.634
141.677
141.719
141.754
141.77
141.741
141.664
141.566
141.475
141.397
141.33
141.272
141.226
141.201
141.201
141.234
141.301
141.401
141.528
141.675
141.831
141.982
142.108
142.194
142.221
141.523
141.604
141.644
141.68
141.695
141.662
141.581
141.48
141.383
141.296
141.222
141.158
141.11
141.082
141.08
141.108
141.17
141.263
141.385
141.528
141.679
141.826
141.95
142.03
142.05
141.126
141.38
141.458
141.511
141.533
141.505
141.434
141.342
141.247
141.159
141.079
141.011
140.958
140.925
140.919
140.942
140.996
141.08
141.192
141.322
141.465
141.606
141.727
141.805
141.824
140.848
141.093
141.205
141.278
141.307
141.288
141.23
141.148
141.058
140.969
140.887
140.813
140.756
140.716
140.702
140.716
140.759
140.83
140.923
141.037
141.162
141.29
141.408
141.488
141.513
140.438
140.739
140.906
141.003
141.045
141.04
140.996
140.924
140.839
140.75
140.663
140.585
140.517
140.466
140.437
140.432
140.453
140.497
140.562
140.643
140.738
140.838
140.939
141.017
141.044
140.104
140.397
140.589
140.704
140.758
140.763
140.727
140.662
140.579
140.488
140.396
140.307
140.226
140.159
140.107
140.074
140.061
140.067
140.087
140.12
140.159
140.202
140.257
140.312
140.346
139.826
140.085
140.276
140.397
140.455
140.463
140.431
140.368
140.284
140.189
140.087
139.985
139.886
139.793
139.71
139.638
139.577
139.526
139.482
139.436
139.386
139.325
139.27
139.238
139.205
139.599
139.813
139.981
140.091
140.143
140.146
140.111
140.046
139.957
139.853
139.738
139.616
139.491
139.364
139.239
139.113
138.987
138.857
138.714
138.552
138.357
138.122
137.863
137.635
137.528
139.407
139.572
139.706
139.791
139.827
139.819
139.775
139.7
139.601
139.483
139.349
139.202
139.041
138.87
138.687
138.49
138.275
138.033
137.75
137.406
136.98
136.448
135.796
135.084
134.368
139.24
139.356
139.446
139.499
139.511
139.485
139.425
139.336
139.221
139.083
138.923
138.741
138.536
138.307
138.049
137.758
137.423
137.027
136.54
135.929
135.138
134.121
132.789
131.25
129.518
139.087
139.153
139.199
139.215
139.199
139.15
139.07
138.961
138.824
138.659
138.464
138.24
137.98
137.678
137.327
136.914
136.422
135.818
135.051
134.05
132.694
130.856
128.16
124.605
118.386
138.94
138.959
138.962
138.942
138.895
138.819
138.715
138.58
138.415
138.216
137.982
137.704
137.378
136.992
136.53
135.971
135.282
134.415
133.282
131.759
129.595
126.572
121.605
115.615
97.166
138.794
138.772
138.736
138.68
138.602
138.498
138.365
138.201
138.001
137.763
137.479
137.143
136.741
136.259
135.672
134.947
134.035
132.862
131.296
129.144
125.926
121.15
111.636
95.708
38.7177
138.651
138.592
138.521
138.433
138.324
138.189
138.025
137.827
137.59
137.306
136.969
136.566
136.082
135.495
134.774
133.875
132.73
131.238
129.232
126.454
122.333
116.127
105.362
87.8694
58.79
138.512
138.422
138.32
138.201
138.062
137.895
137.698
137.463
137.184
136.853
136.458
135.986
135.417
134.722
133.865
132.791
131.419
129.631
127.242
123.971
119.353
112.703
103.085
88.8044
71.5471
138.381
138.264
138.133
137.986
137.816
137.618
137.386
137.113
136.792
136.411
135.959
135.416
134.762
133.962
132.973
131.732
130.152
128.102
125.394
121.756
116.793
109.944
100.548
87.4479
70.719
138.259
138.117
137.961
137.785
137.586
137.357
137.091
136.781
136.417
135.989
135.479
134.871
134.135
133.237
132.126
130.735
128.969
126.694
123.72
119.783
114.521
107.444
97.9846
85.4025
69.5606
138.145
137.981
137.801
137.6
137.373
137.114
136.816
136.471
136.068
135.594
135.034
134.363
133.554
132.568
131.351
129.83
127.907
125.443
122.249
118.065
112.546
105.248
95.6867
83.3166
68.0173
138.038
137.856
137.654
137.43
137.178
136.892
136.565
136.188
135.75
135.236
134.629
133.906
133.035
131.975
130.67
129.045
126.996
124.384
121.015
116.625
110.871
103.301
93.433
80.6776
64.9993
137.939
137.739
137.518
137.274
137
136.691
136.339
135.935
135.467
134.92
134.276
133.51
132.59
131.474
130.103
128.402
126.264
123.547
120.046
115.5
109.531
101.657
91.3323
77.6877
60.8077
137.846
137.631
137.395
137.134
136.842
136.514
136.142
135.716
135.223
134.651
133.978
133.182
132.229
131.077
129.667
127.924
125.738
122.963
119.384
114.724
108.532
100.314
89.3015
74.2452
55.4564
137.759
137.533
137.285
137.01
136.704
136.361
135.973
135.53
135.021
134.431
133.741
132.928
131.959
130.793
129.374
127.626
125.442
122.677
119.097
114.409
108.006
99.3726
86.8182
69.4098
45.9307
137.68
137.445
137.187
136.902
136.586
136.232
135.833
135.38
134.861
134.262
133.565
132.748
131.781
130.624
129.226
127.516
125.395
122.724
119.283
114.764
108.499
99.8244
85.6446
65.4478
27.836
137.609
137.368
137.103
136.811
136.488
136.127
135.722
135.264
134.742
134.142
133.45
132.642
131.693
130.568
129.219
127.587
125.585
123.097
119.941
115.862
110.354
102.804
90.5451
72.5059
22.3174
137.547
137.301
137.032
136.736
136.409
136.045
135.639
135.181
134.662
134.07
133.39
132.605
131.689
130.613
129.338
127.815
125.976
123.731
120.954
117.467
112.997
107.206
99.2906
89.5772
70.0868
137.493
137.245
136.974
136.676
136.349
135.986
135.582
135.129
134.62
134.042
133.384
132.628
131.757
130.745
129.561
128.167
126.515
124.542
122.169
119.296
115.788
111.5
106.229
99.9888
92.2438
137.449
137.2
136.929
136.632
136.307
135.948
135.55
135.107
134.611
134.053
133.422
132.706
131.887
130.947
129.863
128.608
127.149
125.448
123.463
121.145
118.455
115.38
111.972
108.505
105.563
137.413
137.166
136.896
136.603
136.282
135.929
135.541
135.111
134.633
134.099
133.501
132.827
132.066
131.203
130.222
129.105
127.833
126.385
124.743
122.894
120.842
118.623
116.337
114.218
112.645
137.387
137.141
136.876
136.587
136.272
135.929
135.552
135.138
134.681
134.174
133.61
132.983
132.281
131.496
130.617
129.632
128.532
127.308
125.959
124.488
122.922
121.31
119.755
118.432
117.573
137.369
137.127
136.865
136.583
136.277
135.944
135.582
135.185
134.75
134.272
133.746
133.165
132.523
131.814
131.03
130.167
129.22
128.191
127.082
125.911
124.706
123.515
122.422
121.541
121.003
137.358
137.12
136.865
136.59
136.294
135.973
135.626
135.248
134.837
134.389
133.9
133.366
132.782
132.144