/*--------------------------------*- C++ -*----------------------------------*\
  =========                 |
  \\      /  F ield         | OpenFOAM: The Open Source CFD Toolbox
   \\    /   O peration     | Website:  https://openfoam.org
    \\  /    A nd           | Version:  13
     \\/     M anipulation  |
\*---------------------------------------------------------------------------*/
FoamFile
{
    format      ascii;
    class       volScalarField;
    location    "10";
    object      p;
}
// * * * * * * * * * * * * * * * * * * * * * * * * * * * * * * * * * * * * * //

dimensions      [0 2 -2 0 0 0 0];

internalField   nonuniform List<scalar> 
6440
(
-0.00139768
-0.00139801
-0.00139875
-0.00139988
-0.00140137
-0.00140315
-0.00140509
-0.00140709
-0.00140903
-0.00141079
-0.00141223
-0.00141325
-0.00141374
-0.00141365
-0.00141294
-0.00141164
-0.00140979
-0.00140747
-0.00140477
-0.00140177
-0.00139851
-0.00139506
-0.00139154
-0.00138803
-0.00138495
-0.00139582
-0.00139617
-0.00139693
-0.0013981
-0.00139965
-0.00140152
-0.00140362
-0.00140583
-0.00140807
-0.00141018
-0.00141205
-0.00141354
-0.00141452
-0.00141488
-0.00141454
-0.00141345
-0.00141161
-0.00140898
-0.00140556
-0.00140149
-0.00139684
-0.00139168
-0.00138622
-0.00138071
-0.00137568
-0.00139289
-0.00139333
-0.0013942
-0.00139553
-0.00139729
-0.00139942
-0.00140188
-0.00140453
-0.00140726
-0.00140994
-0.00141242
-0.00141454
-0.00141614
-0.00141706
-0.00141715
-0.00141631
-0.00141445
-0.00141144
-0.00140733
-0.00140222
-0.00139623
-0.00138948
-0.00138227
-0.00137515
-0.00136893
-0.00138901
-0.00138956
-0.0013906
-0.00139215
-0.0013942
-0.00139669
-0.00139955
-0.0014027
-0.001406
-0.00140931
-0.00141246
-0.00141527
-0.00141755
-0.00141908
-0.00141968
-0.00141918
-0.00141743
-0.00141428
-0.00140969
-0.00140381
-0.00139676
-0.00138873
-0.00138008
-0.00137161
-0.00136442
-0.0013841
-0.00138476
-0.00138597
-0.00138777
-0.00139013
-0.001393
-0.0013963
-0.00139997
-0.00140386
-0.00140781
-0.00141167
-0.00141523
-0.00141827
-0.00142055
-0.00142182
-0.00142185
-0.00142048
-0.00141751
-0.00141279
-0.00140647
-0.00139868
-0.00138961
-0.00137972
-0.00136998
-0.00136181
-0.00137809
-0.00137886
-0.00138024
-0.00138229
-0.00138498
-0.00138824
-0.00139199
-0.00139615
-0.00140064
-0.00140526
-0.00140985
-0.0014142
-0.00141808
-0.00142123
-0.00142337
-0.00142419
-0.00142347
-0.001421
-0.00141659
-0.00141017
-0.00140192
-0.00139205
-0.00138102
-0.00137007
-0.00136093
-0.00137095
-0.00137183
-0.0013734
-0.0013757
-0.00137872
-0.00138237
-0.00138659
-0.00139127
-0.00139633
-0.00140161
-0.00140693
-0.00141209
-0.00141687
-0.00142099
-0.00142416
-0.00142601
-0.00142622
-0.00142455
-0.00142077
-0.00141467
-0.00140626
-0.00139579
-0.00138375
-0.00137167
-0.00136156
-0.00136269
-0.00136368
-0.00136543
-0.001368
-0.00137135
-0.00137542
-0.00138011
-0.00138532
-0.00139094
-0.00139688
-0.00140292
-0.00140889
-0.00141458
-0.00141973
-0.00142402
-0.00142708
-0.00142852
-0.00142793
-0.00142508
-0.00141969
-0.00141147
-0.00140066
-0.0013878
-0.00137461
-0.00136353
-0.00135332
-0.00135442
-0.00135635
-0.00135919
-0.00136289
-0.00136737
-0.00137255
-0.0013783
-0.00138451
-0.00139108
-0.00139785
-0.00140462
-0.0014112
-0.00141737
-0.00142282
-0.00142721
-0.00143007
-0.0014309
-0.00142926
-0.00142486
-0.00141732
-0.00140647
-0.00139293
-0.00137867
-0.00136667
-0.00134287
-0.00134406
-0.00134617
-0.00134927
-0.00135333
-0.00135824
-0.00136392
-0.00137024
-0.00137707
-0.0013843
-0.00139179
-0.00139933
-0.00140676
-0.0014139
-0.0014205
-0.00142622
-0.00143063
-0.00143314
-0.0014331
-0.00143
-0.00142349
-0.00141305
-0.00139909
-0.00138385
-0.00137096
-0.00133137
-0.00133265
-0.00133492
-0.00133828
-0.00134267
-0.00134801
-0.00135419
-0.0013611
-0.0013686
-0.00137654
-0.00138475
-0.00139307
-0.00140132
-0.00140937
-0.00141703
-0.00142404
-0.00143001
-0.00143434
-0.00143626
-0.0014349
-0.0014297
-0.0014202
-0.00140624
-0.00139028
-0.00137649
-0.00131887
-0.00132022
-0.00132263
-0.00132621
-0.00133091
-0.00133665
-0.00134333
-0.00135082
-0.00135899
-0.00136768
-0.00137668
-0.00138581
-0.00139491
-0.00140385
-0.00141251
-0.00142073
-0.00142817
-0.00143428
-0.00143837
-0.00143924
-0.00143586
-0.00142767
-0.00141425
-0.00139783
-0.0013832
-0.00130546
-0.00130685
-0.00130936
-0.00131312
-0.00131807
-0.00132415
-0.00133126
-0.00133929
-0.00134811
-0.00135758
-0.00136741
-0.00137743
-0.00138748
-0.00139738
-0.00140709
-0.00141647
-0.00142523
-0.00143298
-0.00143907
-0.00144247
-0.00144176
-0.00143538
-0.00142304
-0.00140661
-0.00139138
-0.00129124
-0.00129264
-0.00129521
-0.00129907
-0.00130419
-0.0013105
-0.00131794
-0.0013264
-0.00133579
-0.00134596
-0.0013566
-0.0013676
-0.00137873
-0.0013898
-0.00140069
-0.00141125
-0.00142128
-0.00143057
-0.00143861
-0.0014445
-0.00144673
-0.00144333
-0.00143269
-0.0014169
-0.00140141
-0.00127633
-0.00127771
-0.00128028
-0.00128417
-0.00128934
-0.00129576
-0.00130336
-0.00131208
-0.00132184
-0.00133251
-0.0013439
-0.00135585
-0.00136811
-0.0013805
-0.00139287
-0.00140493
-0.00141638
-0.00142729
-0.00143721
-0.00144552
-0.00145086
-0.00145097
-0.00144348
-0.00142925
-0.00141411
-0.00126091
-0.00126223
-0.00126474
-0.00126855
-0.00127365
-0.00128001
-0.00128756
-0.00129627
-0.00130609
-0.00131699
-0.00132885
-0.00134158
-0.00135495
-0.00136876
-0.00138276
-0.00139666
-0.00141021
-0.00142316
-0.00143504
-0.00144591
-0.00145442
-0.00145859
-0.00145541
-0.00144455
-0.0014308
-0.00124517
-0.0012464
-0.00124878
-0.00125241
-0.00125727
-0.00126335
-0.00127062
-0.00127906
-0.00128864
-0.00129934
-0.00131122
-0.00132429
-0.00133841
-0.00135339
-0.00136901
-0.001385
-0.00140104
-0.00141677
-0.00143185
-0.00144589
-0.00145778
-0.00146668
-0.00146942
-0.00146438
-0.00145418
-0.00122931
-0.00123044
-0.00123264
-0.00123596
-0.00124043
-0.00124604
-0.00125279
-0.00126065
-0.00126963
-0.00127969
-0.00129104
-0.00130374
-0.00131786
-0.00133334
-0.00135005
-0.00136783
-0.0013865
-0.00140576
-0.00142508
-0.00144354
-0.00146094
-0.00147622
-0.00148718
-0.00149198
-0.00148982
-0.00121361
-0.0012146
-0.00121654
-0.00121947
-0.00122343
-0.00122842
-0.00123443
-0.00124147
-0.00124954
-0.00125866
-0.00126895
-0.00128058
-0.00129376
-0.00130872
-0.00132542
-0.00134392
-0.00136434
-0.00138667
-0.00141068
-0.00143547
-0.00146133
-0.00148718
-0.00151088
-0.0015324
-0.00154992
-0.00119828
-0.00119912
-0.00120077
-0.0012033
-0.00120673
-0.00121106
-0.0012163
-0.00122245
-0.00122953
-0.00123762
-0.00124681
-0.00125723
-0.00126904
-0.00128244
-0.00129789
-0.00131583
-0.0013364
-0.00135999
-0.00138699
-0.00141835
-0.0014544
-0.00149515
-0.00154199
-0.00159597
-0.00166328
-0.00118346
-0.00118417
-0.00118561
-0.00118786
-0.00119093
-0.00119483
-0.00119955
-0.00120511
-0.00121155
-0.00121893
-0.00122735
-0.00123694
-0.0012479
-0.00126045
-0.00127492
-0.00129171
-0.00131144
-0.0013348
-0.00136262
-0.00139606
-0.00143693
-0.00148867
-0.00155927
-0.00166826
-0.00186342
-0.00116869
-0.00116936
-0.00117072
-0.00117287
-0.00117581
-0.00117955
-0.0011841
-0.00118948
-0.00119572
-0.0012029
-0.0012111
-0.00122046
-0.00123117
-0.00124348
-0.00125769
-0.00127423
-0.00129364
-0.0013166
-0.00134435
-0.00137814
-0.00142006
-0.00147417
-0.0015478
-0.00165372
-0.0018062
-0.00115398
-0.00115461
-0.00115593
-0.00115802
-0.00116088
-0.00116453
-0.00116898
-0.00117425
-0.00118037
-0.00118742
-0.00119549
-0.00120471
-0.00121526
-0.00122738
-0.00124137
-0.00125764
-0.00127669
-0.00129921
-0.00132616
-0.00135879
-0.00139909
-0.0014498
-0.00151501
-0.001599
-0.00170035
-0.00113933
-0.00113994
-0.00114121
-0.00114322
-0.00114599
-0.00114952
-0.00115383
-0.00115894
-0.00116488
-0.00117172
-0.00117953
-0.00118846
-0.00119865
-0.00121033
-0.00122378
-0.00123934
-0.00125746
-0.00127871
-0.00130383
-0.00133376
-0.00136971
-0.00141313
-0.00146538
-0.00152634
-0.00159107
-0.00112477
-0.00112535
-0.00112656
-0.00112848
-0.00113112
-0.0011345
-0.00113861
-0.00114348
-0.00114914
-0.00115565
-0.00116307
-0.00117152
-0.00118113
-0.00119209
-0.00120464
-0.00121904
-0.00123564
-0.00125486
-0.00127718
-0.00130314
-0.00133328
-0.001368
-0.00140702
-0.00144873
-0.00148855
-0.00111033
-0.00111088
-0.00111201
-0.00111381
-0.0011163
-0.00111947
-0.00112334
-0.00112791
-0.00113321
-0.00113928
-0.00114618
-0.00115399
-0.00116283
-0.00117284
-0.0011842
-0.00119709
-0.00121176
-0.00122844
-0.00124738
-0.00126877
-0.00129266
-0.00131879
-0.00134626
-0.00137298
-0.00139555
-0.00109603
-0.00109653
-0.00109757
-0.00109925
-0.00110155
-0.00110449
-0.00110806
-0.00111227
-0.00111714
-0.00112268
-0.00112895
-0.00113601
-0.00114393
-0.00115281
-0.00116277
-0.00117392
-0.00118639
-0.00120027
-0.00121561
-0.00123235
-0.00125022
-0.00126863
-0.00128647
-0.00130186
-0.00131221
-0.00108189
-0.00108234
-0.00108329
-0.00108481
-0.00108691
-0.00108958
-0.00109282
-0.00109662
-0.00110099
-0.00110595
-0.00111151
-0.00111771
-0.0011246
-0.00113224
-0.00114068
-0.00114996
-0.00116013
-0.00117115
-0.00118293
-0.00119524
-0.00120767
-0.00121949
-0.0012296
-0.00123645
-0.00123803
-0.00106794
-0.00106834
-0.00106918
-0.00107054
-0.00107241
-0.00107479
-0.00107767
-0.00108102
-0.00108486
-0.00108917
-0.00109397
-0.00109926
-0.00110506
-0.00111139
-0.00111825
-0.00112564
-0.00113351
-0.00114176
-0.00115019
-0.00115849
-0.00116617
-0.00117252
-0.00117654
-0.00117695
-0.00117225
-0.00105421
-0.00105455
-0.00105528
-0.00105647
-0.0010581
-0.00106017
-0.00106266
-0.00106555
-0.00106882
-0.00107246
-0.00107646
-0.00108081
-0.00108549
-0.0010905
-0.0010958
-0.00110133
-0.001107
-0.00111266
-0.00111805
-0.00112282
-0.00112648
-0.00112837
-0.00112763
-0.00112323
-0.00111402
-0.00104073
-0.00104101
-0.00104163
-0.00104263
-0.00104401
-0.00104576
-0.00104785
-0.00105025
-0.00105295
-0.00105591
-0.0010591
-0.0010625
-0.00106608
-0.0010698
-0.00107358
-0.00107736
-0.00108099
-0.00108428
-0.00108698
-0.00108872
-0.00108904
-0.00108734
-0.00108292
-0.00107494
-0.00106253
-0.00102752
-0.00102775
-0.00102824
-0.00102906
-0.00103019
-0.00103162
-0.0010333
-0.00103522
-0.00103733
-0.00103961
-0.00104201
-0.00104449
-0.001047
-0.00104947
-0.00105184
-0.00105398
-0.00105576
-0.00105695
-0.00105732
-0.0010565
-0.00105408
-0.00104954
-0.00104229
-0.00103169
-0.00101704
-0.00101463
-0.00101479
-0.00101517
-0.0010158
-0.00101668
-0.00101778
-0.00101906
-0.0010205
-0.00102205
-0.00102366
-0.00102529
-0.00102688
-0.00102838
-0.0010297
-0.00103075
-0.00103142
-0.00103154
-0.00103091
-0.00102927
-0.00102633
-0.00102169
-0.00101493
-0.00100555
-0.000993047
-0.000976888
-0.00100207
-0.00100217
-0.00100243
-0.00100288
-0.00100351
-0.00100429
-0.00100519
-0.00100616
-0.00100716
-0.00100813
-0.00100903
-0.00100979
-0.00101035
-0.00101061
-0.00101047
-0.00100982
-0.00100848
-0.00100628
-0.00100298
-0.000998282
-0.000991878
-0.000983397
-0.000972442
-0.000958601
-0.000941469
-0.000989874
-0.00098992
-0.000990063
-0.000990341
-0.000990731
-0.000991205
-0.000991725
-0.000992248
-0.000992725
-0.000993102
-0.000993319
-0.000993309
-0.000992998
-0.000992296
-0.000991102
-0.000989289
-0.000986706
-0.000983175
-0.000978481
-0.000972377
-0.000964586
-0.000954802
-0.000942703
-0.000927962
-0.000910267
-0.000978068
-0.000978058
-0.000978092
-0.0009782
-0.000978361
-0.000978544
-0.000978709
-0.000978812
-0.000978802
-0.000978622
-0.00097821
-0.000977497
-0.000976406
-0.000974849
-0.000972723
-0.000969908
-0.000966263
-0.000961622
-0.000955797
-0.000948573
-0.000939714
-0.000928967
-0.000916072
-0.00090077
-0.000882822
-0.000966673
-0.000966609
-0.00096654
-0.000966489
-0.000966434
-0.000966343
-0.000966177
-0.000965889
-0.000965429
-0.000964738
-0.000963755
-0.000962409
-0.000960625
-0.000958316
-0.000955384
-0.000951715
-0.000947179
-0.000941629
-0.000934898
-0.000926802
-0.000917141
-0.000905709
-0.000892296
-0.000876698
-0.000858731
-0.000955708
-0.000955594
-0.000955428
-0.000955229
-0.000954973
-0.000954629
-0.000954156
-0.00095351
-0.000952639
-0.000951487
-0.000949991
-0.000948084
-0.000945692
-0.000942732
-0.000939111
-0.000934725
-0.000929456
-0.000923173
-0.000915732
-0.000906974
-0.000896735
-0.000884844
-0.000871133
-0.000855444
-0.000837635
-0.000945188
-0.000945029
-0.000944774
-0.000944438
-0.000943998
-0.000943421
-0.000942669
-0.000941698
-0.000940457
-0.000938893
-0.000936944
-0.000934545
-0.000931627
-0.000928111
-0.000923912
-0.000918934
-0.000913073
-0.000906213
-0.000898229
-0.000888989
-0.000878355
-0.000866189
-0.000852358
-0.000836736
-0.000819219
-0.000935128
-0.000934927
-0.000934591
-0.000934131
-0.000933523
-0.000932735
-0.000931732
-0.00093047
-0.0009289
-0.000926972
-0.000924627
-0.000921805
-0.000918438
-0.000914456
-0.000909779
-0.000904323
-0.000897994
-0.000890692
-0.000882311
-0.000872739
-0.000861863
-0.000849571
-0.000835758
-0.000820328
-0.000803203
-0.000925535
-0.000925297
-0.000924888
-0.000924316
-0.000923557
-0.000922582
-0.000921355
-0.000919835
-0.000917978
-0.000915733
-0.000913047
-0.000909864
-0.000906122
-0.000901755
-0.000896692
-0.000890858
-0.000884172
-0.000876546
-0.00086789
-0.000858113
-0.00084712
-0.000834823
-0.000821139
-0.000805995
-0.000789335
-0.000916417
-0.000916146
-0.000915672
-0.000915001
-0.000914109
-0.000912968
-0.000911544
-0.000909799
-0.000907692
-0.000905176
-0.000902202
-0.000898717
-0.000894666
-0.000889988
-0.000884622
-0.000878501
-0.000871552
-0.000863703
-0.000854878
-0.000845
-0.000833993
-0.000821788
-0.000808319
-0.000793533
-0.000777391
-0.000907777
-0.000907477
-0.000906947
-0.000906188
-0.000905179
-0.000903893
-0.000902299
-0.000900361
-0.000898041
-0.000895296
-0.000892082
-0.00088835
-0.000884051
-0.000879131
-0.000873534
-0.000867203
-0.000860076
-0.00085209
-0.000843183
-0.000833291
-0.000822355
-0.000810318
-0.000797132
-0.000782759
-0.000767171
-0.000899614
-0.000899289
-0.00089871
-0.000897877
-0.000896767
-0.000895357
-0.000893617
-0.000891516
-0.000889017
-0.000886083
-0.000882673
-0.000878745
-0.000874252
-0.000869149
-0.000863387
-0.000856914
-0.00084968
-0.000841631
-0.000832716
-0.000822882
-0.000812084
-0.000800277
-0.000787425
-0.000773503
-0.000758495
-0.000891926
-0.00089158
-0.00089096
-0.000890063
-0.000888868
-0.000887352
-0.000885491
-0.000883254
-0.000880609
-0.000877522
-0.000873958
-0.000869877
-0.000865241
-0.000860008
-0.000854136
-0.000847582
-0.000840302
-0.000832251
-0.000823389
-0.000813672
-0.000803065
-0.000791536
-0.000779058
-0.000765615
-0.0007512
-0.000884708
-0.000884345
-0.000883691
-0.00088274
-0.000881474
-0.000879872
-0.00087791
-0.000875563
-0.000872801
-0.000869595
-0.000865913
-0.000861721
-0.000856985
-0.000851669
-0.000845736
-0.000839151
-0.000831877
-0.000823877
-0.000815117
-0.000805565
-0.000795193
-0.000783977
-0.000771901
-0.000758955
-0.00074514
-0.000877953
-0.000877576
-0.000876895
-0.000875901
-0.000874577
-0.000872905
-0.000870863
-0.000868429
-0.000865577
-0.000862282
-0.000858515
-0.000854247
-0.000849449
-0.00084409
-0.00083814
-0.000831568
-0.000824343
-0.000816436
-0.00080782
-0.000798471
-0.000788367
-0.000777492
-0.000765837
-0.000753399
-0.000740182
-0.000871651
-0.000871264
-0.000870561
-0.000869533
-0.000868163
-0.000866437
-0.000864334
-0.000861834
-0.000858917
-0.000855559
-0.000851736
-0.000847425
-0.000842599
-0.000837233
-0.0008313
-0.000824777
-0.000817638
-0.000809859
-0.000801421
-0.000792303
-0.000782493
-0.000771979
-0.000760758
-0.000748831
-0.000736209
-0.000865791
-0.000865397
-0.000864678
-0.000863624
-0.000862221
-0.000860453
-0.000858305
-0.00085576
-0.000852798
-0.000849401
-0.00084555
-0.000841222
-0.000836397
-0.000831053
-0.00082517
-0.000818727
-0.000811703
-0.000804082
-0.000795846
-0.000786984
-0.000777486
-0.000767346
-0.000756565
-0.00074515
-0.000733112
-0.000860362
-0.000859963
-0.000859233
-0.000858161
-0.000856733
-0.000854938
-0.00085276
-0.000850185
-0.000847199
-0.000843785
-0.000839926
-0.000835606
-0.000830807
-0.000825512
-0.000819704
-0.000813365
-0.000806482
-0.00079904
-0.000791029
-0.000782439
-0.000773265
-0.000763507
-0.000753169
-0.00074226
-0.000730796
-0.000855348
-0.000854947
-0.000854211
-0.000853128
-0.000851685
-0.000849873
-0.000847678
-0.00084509
-0.000842096
-0.000838682
-0.000834836
-0.000830545
-0.000825793
-0.000820568
-0.000814856
-0.000808644
-0.00080192
-0.000794676
-0.000786903
-0.000778597
-0.000769757
-0.000760384
-0.000750487
-0.000740076
-0.00072917
-0.000850737
-0.000850336
-0.000849597
-0.000848508
-0.000847059
-0.000845239
-0.00084304
-0.000840451
-0.000837464
-0.000834067
-0.000830251
-0.000826006
-0.00082132
-0.000816182
-0.000810584
-0.000804514
-0.000797966
-0.000790932
-0.00078341
-0.000775396
-0.000766893
-0.000757906
-0.000748444
-0.000738522
-0.000728158
-0.000846511
-0.000846112
-0.000845374
-0.000844286
-0.000842837
-0.000841019
-0.000838825
-0.000836248
-0.00083328
-0.000829914
-0.000826142
-0.000821957
-0.000817351
-0.000812317
-0.000806846
-0.000800932
-0.000794571
-0.000787758
-0.000780492
-0.000772775
-0.000764611
-0.000756006
-0.000746973
-0.000737527
-0.000727687
-0.000842656
-0.000842259
-0.000841526
-0.000840443
-0.000839
-0.000837192
-0.000835012
-0.000832456
-0.000829519
-0.000826195
-0.00082248
-0.000818368
-0.000813855
-0.000808934
-0.000803602
-0.000797854
-0.000791688
-0.000785103
-0.000778099
-0.00077068
-0.000762852
-0.000754625
-0.000746011
-0.000737026
-0.000727692
-0.000839154
-0.000838762
-0.000838036
-0.000836961
-0.00083553
-0.000833738
-0.000831581
-0.000829054
-0.000826157
-0.000822885
-0.000819236
-0.000815208
-0.000810796
-0.000806
-0.000800815
-0.00079524
-0.000789276
-0.000782921
-0.000776181
-0.00076906
-0.000761565
-0.000753707
-0.000745501
-0.000736963
-0.000728115
-0.000835988
-0.000835602
-0.000834886
-0.000833823
-0.000832409
-0.000830638
-0.000828509
-0.00082602
-0.00082317
-0.000819958
-0.000816384
-0.000812447
-0.000808146
-0.00080348
-0.000798449
-0.000793052
-0.000787292
-0.000781171
-0.000774694
-0.000767867
-0.000760699
-0.000753203
-0.000745392
-0.000737285
-0.000728903
-0.000833142
-0.000832763
-0.000832058
-0.000831011
-0.000829617
-0.000827872
-0.000825777
-0.000823331
-0.000820535
-0.00081739
-0.000813897
-0.000810057
-0.000805872
-0.000801342
-0.000796469
-0.000791254
-0.0007857
-0.000779812
-0.000773595
-0.000767058
-0.00076021
-0.000753065
-0.000745637
-0.000737945
-0.000730009
-0.000830598
-0.000830228
-0.000829535
-0.000828506
-0.000827135
-0.000825421
-0.000823364
-0.000820966
-0.000818229
-0.000815156
-0.000811749
-0.000808012
-0.000803947
-0.000799556
-0.000794843
-0.000789811
-0.000784463
-0.000778806
-0.000772846
-0.000766593
-0.000760058
-0.000753252
-0.000746194
-0.000738899
-0.00073139
-0.00082834
-0.000827978
-0.0008273
-0.00082629
-0.000824945
-0.000823265
-0.00082125
-0.000818904
-0.00081623
-0.000813232
-0.000809916
-0.000806284
-0.000802342
-0.000798094
-0.000793542
-0.000788692
-0.000783549
-0.00077812
-0.000772412
-0.000766436
-0.000760203
-0.000753727
-0.000747023
-0.000740109
-0.000733007
-0.000826351
-0.000825997
-0.000825334
-0.000824346
-0.00082303
-0.000821385
-0.000819416
-0.000817124
-0.000814516
-0.000811597
-0.000808373
-0.00080485
-0.000801033
-0.000796927
-0.000792536
-0.000787867
-0.000782926
-0.000777721
-0.00077226
-0.000766553
-0.000760613
-0.000754453
-0.000748089
-0.000741539
-0.000734824
-0.000824614
-0.000824269
-0.000823622
-0.000822657
-0.00082137
-0.000819764
-0.000817841
-0.000815607
-0.000813067
-0.000810229
-0.0008071
-0.000803686
-0.000799993
-0.000796029
-0.000791799
-0.000787309
-0.000782566
-0.00077758
-0.000772358
-0.000766912
-0.000761254
-0.000755398
-0.00074936
-0.000743158
-0.000736811
-0.000823112
-0.000822777
-0.000822147
-0.000821205
-0.000819949
-0.000818382
-0.000816508
-0.000814332
-0.000811862
-0.000809106
-0.000806072
-0.000802768
-0.000799201
-0.000795377
-0.000791305
-0.000786991
-0.000782442
-0.000777668
-0.000772679
-0.000767485
-0.000762099
-0.000756534
-0.000750808
-0.000744936
-0.000738939
-0.000821831
-0.000821505
-0.000820892
-0.000819974
-0.00081875
-0.000817223
-0.000815398
-0.000813282
-0.000810883
-0.00080821
-0.000805271
-0.000802076
-0.000798632
-0.000794948
-0.000791031
-0.000786888
-0.000782529
-0.000777962
-0.000773197
-0.000768245
-0.00076312
-0.000757835
-0.000752405
-0.000746848
-0.000741182
-0.000820753
-0.000820437
-0.000819841
-0.000818947
-0.000817756
-0.00081627
-0.000814495
-0.000812439
-0.000810111
-0.00080752
-0.000804676
-0.000801589
-0.000798267
-0.000794719
-0.000790954
-0.000786979
-0.000782803
-0.000778435
-0.000773887
-0.000769169
-0.000764293
-0.000759275
-0.000754128
-0.000748869
-0.000743517
-0.000819865
-0.000819558
-0.000818979
-0.00081811
-0.000816951
-0.000815506
-0.000813782
-0.000811786
-0.000809528
-0.000807018
-0.000804268
-0.000801288
-0.000798086
-0.000794671
-0.000791054
-0.000787241
-0.000783243
-0.000779068
-0.000774728
-0.000770233
-0.000765597
-0.000760832
-0.000755955
-0.000750979
-0.000745924
-0.00081915
-0.000818854
-0.000818291
-0.000817446
-0.00081632
-0.000814916
-0.000813241
-0.000811305
-0.000809117
-0.000806688
-0.000804031
-0.000801154
-0.000798069
-0.000794785
-0.000791311
-0.000787655
-0.000783828
-0.000779839
-0.000775699
-0.000771418
-0.00076701
-0.000762488
-0.000757865
-0.000753158
-0.000748383
-0.000818596
-0.000818309
-0.000817762
-0.000816942
-0.000815848
-0.000814485
-0.000812859
-0.000810982
-0.000808862
-0.000806513
-0.000803946
-0.000801171
-0.0007982
-0.000795042
-0.000791707
-0.000788203
-0.000784541
-0.00078073
-0.000776781
-0.000772705
-0.000768514
-0.000764222
-0.000759841
-0.000755388
-0.000750879
-0.000818188
-0.00081791
-0.00081738
-0.000816583
-0.000815521
-0.000814197
-0.000812621
-0.000810801
-0.000808749
-0.000806477
-0.000803998
-0.000801322
-0.000798461
-0.000795426
-0.000792225
-0.000788867
-0.000785364
-0.000781723
-0.000777957
-0.000774076
-0.000770092
-0.000766018
-0.000761867
-0.000757654
-0.000753394
-0.000817914
-0.000817644
-0.000817129
-0.000816356
-0.000815325
-0.00081404
-0.000812511
-0.000810748
-0.000808762
-0.000806565
-0.000804171
-0.000801592
-0.000798838
-0.00079592
-0.000792848
-0.000789632
-0.00078628
-0.000782803
-0.000779211
-0.000775516
-0.000771728
-0.000767861
-0.000763927
-0.000759941
-0.000755917
-0.000817759
-0.000817497
-0.000816998
-0.000816248
-0.000815246
-0.000814
-0.000812517
-0.000810809
-0.000808887
-0.000806764
-0.000804453
-0.000801966
-0.000799315
-0.000796511
-0.000793563
-0.000790481
-0.000787275
-0.000783954
-0.000780528
-0.000777009
-0.000773408
-0.000769737
-0.000766009
-0.000762236
-0.000758434
-0.000817713
-0.000817458
-0.000816974
-0.000816245
-0.000815273
-0.000814064
-0.000812626
-0.000810971
-0.000809111
-0.000807059
-0.000804828
-0.000802431
-0.000799879
-0.000797184
-0.000794355
-0.000791402
-0.000788334
-0.000785162
-0.000781895
-0.000778543
-0.000775119
-0.000771634
-0.000768099
-0.000764528
-0.000760934
-0.000817763
-0.000817516
-0.000817045
-0.000816337
-0.000815393
-0.00081422
-0.000812825
-0.000811222
-0.000809421
-0.000807438
-0.000805284
-0.000802973
-0.000800517
-0.000797926
-0.000795211
-0.000792381
-0.000789446
-0.000786415
-0.000783298
-0.000780106
-0.000776849
-0.000773539
-0.000770187
-0.000766805
-0.000763408
-0.000817898
-0.000817657
-0.0008172
-0.000816512
-0.000815595
-0.000814456
-0.000813103
-0.000811549
-0.000809806
-0.000807889
-0.000805809
-0.000803581
-0.000801216
-0.000798726
-0.000796119
-0.000793407
-0.000790597
-0.000787701
-0.000784727
-0.000781685
-0.000778586
-0.000775441
-0.000772262
-0.000769059
-0.000765846
-0.000818107
-0.000817873
-0.000817427
-0.000816758
-0.000815867
-0.000814761
-0.000813449
-0.000811942
-0.000810255
-0.0008084
-0.000806392
-0.000804243
-0.000801966
-0.000799571
-0.000797068
-0.000794467
-0.000791778
-0.000789009
-0.00078617
-0.000783271
-0.000780321
-0.000777333
-0.000774315
-0.00077128
-0.00076824
-0.000818381
-0.000818151
-0.000817717
-0.000817066
-0.0008162
-0.000815125
-0.000813851
-0.00081239
-0.000810756
-0.000808962
-0.000807022
-0.000804949
-0.000802755
-0.000800451
-0.000798047
-0.000795553
-0.000792977
-0.000790329
-0.000787618
-0.000784853
-0.000782045
-0.000779203
-0.000776338
-0.000773461
-0.000770583
-0.000818709
-0.000818484
-0.00081806
-0.000817425
-0.000816582
-0.000815537
-0.0008143
-0.000812883
-0.000811299
-0.000809563
-0.000807688
-0.000805687
-0.000803573
-0.000801356
-0.000799046
-0.000796653
-0.000794185
-0.000791651
-0.000789061
-0.000786424
-0.000783749
-0.000781045
-0.000778324
-0.000775595
-0.000772868
-0.000819082
-0.00081886
-0.000818445
-0.000817826
-0.000817005
-0.000815988
-0.000814786
-0.00081341
-0.000811875
-0.000810194
-0.000808381
-0.00080645
-0.000804412
-0.000802277
-0.000800057
-0.000797759
-0.000795393
-0.000792968
-0.000790493
-0.000787975
-0.000785425
-0.000782852
-0.000780265
-0.000777674
-0.00077509
-0.000819491
-0.000819271
-0.000818864
-0.000818259
-0.000817459
-0.000816468
-0.000815299
-0.000813964
-0.000812475
-0.000810847
-0.000809093
-0.000807227
-0.000805261
-0.000803206
-0.00080107
-0.000798863
-0.000796594
-0.000794272
-0.000791904
-0.000789499
-0.000787067
-0.000784616
-0.000782155
-0.000779694
-0.000777243
-0.000819927
-0.000819709
-0.000819308
-0.000818717
-0.000817935
-0.00081697
-0.000815832
-0.000814534
-0.000813089
-0.000811511
-0.000809814
-0.000808011
-0.000806114
-0.000804133
-0.000802078
-0.000799957
-0.00079778
-0.000795554
-0.000793288
-0.000790989
-0.000788668
-0.000786331
-0.000783989
-0.00078165
-0.000779322
-0.000820382
-0.000820164
-0.000819769
-0.000819189
-0.000818424
-0.000817483
-0.000816375
-0.000815113
-0.00081371
-0.00081218
-0.000810537
-0.000808794
-0.000806962
-0.000805052
-0.000803073
-0.000801034
-0.000798943
-0.000796809
-0.000794638
-0.00079244
-0.000790222
-0.000787993
-0.000785762
-0.000783536
-0.000781324
-0.000820849
-0.00082063
-0.000820238
-0.000819668
-0.00081892
-0.000818
-0.000816921
-0.000815693
-0.00081433
-0.000812845
-0.000811254
-0.000809567
-0.000807798
-0.000805955
-0.000804049
-0.000802087
-0.000800078
-0.00079803
-0.00079595
-0.000793846
-0.000791725
-0.000789597
-0.000787469
-0.000785349
-0.000783245
-0.000821319
-0.000821098
-0.000820708
-0.000820146
-0.000819412
-0.000818514
-0.000817461
-0.000816265
-0.00081494
-0.0008135
-0.000811958
-0.000810326
-0.000808616
-0.000806837
-0.000805
-0.000803111
-0.000801179
-0.000799212
-0.000797217
-0.000795201
-0.000793172
-0.000791138
-0.000789106
-0.000787085
-0.000785082
-0.000821785
-0.000821559
-0.00082117
-0.000820615
-0.000819894
-0.000819015
-0.000817987
-0.000816823
-0.000815535
-0.000814137
-0.000812642
-0.000811062
-0.000809409
-0.000807692
-0.000805919
-0.0008041
-0.000802241
-0.000800351
-0.000798435
-0.000796502
-0.000794559
-0.000792612
-0.000790671
-0.000788741
-0.000786831
-0.00082224
-0.000822008
-0.000821617
-0.000821067
-0.000820358
-0.000819497
-0.000818494
-0.00081736
-0.000816107
-0.00081475
-0.0008133
-0.000811771
-0.000810172
-0.000808513
-0.000806803
-0.000805049
-0.00080326
-0.000801441
-0.0007996
-0.000797745
-0.000795881
-0.000794017
-0.000792159
-0.000790315
-0.000788491
-0.000822677
-0.000822436
-0.00082204
-0.000821494
-0.000820796
-0.000819952
-0.000818972
-0.000817868
-0.00081665
-0.000815333
-0.000813927
-0.000812446
-0.000810899
-0.000809297
-0.000807646
-0.000805954
-0.00080423
-0.000802479
-0.000800709
-0.000798925
-0.000797136
-0.000795348
-0.000793568
-0.000791803
-0.000790059
-0.000823087
-0.000822834
-0.000822432
-0.000821887
-0.000821199
-0.000820372
-0.000819416
-0.000818341
-0.000817158
-0.000815879
-0.000814518
-0.000813084
-0.000811588
-0.000810038
-0.000808444
-0.000806812
-0.000805149
-0.000803462
-0.000801757
-0.000800042
-0.000798322
-0.000796605
-0.000794897
-0.000793205
-0.000791535
-0.000823464
-0.000823195
-0.000822783
-0.000822238
-0.000821559
-0.000820749
-0.000819817
-0.000818772
-0.000817624
-0.000816385
-0.000815067
-0.000813679
-0.000812232
-0.000810734
-0.000809194
-0.000807618
-0.000806013
-0.000804386
-0.000802743
-0.000801091
-0.000799436
-0.000797784
-0.000796143
-0.000794518
-0.000792916
-0.000823798
-0.000823509
-0.000823083
-0.000822537
-0.000821868
-0.000821076
-0.00082017
-0.000819156
-0.000818045
-0.000816846
-0.00081557
-0.000814229
-0.00081283
-0.000811382
-0.000809893
-0.000808371
-0.000806821
-0.00080525
-0.000803665
-0.000802071
-0.000800476
-0.000798885
-0.000797305
-0.000795741
-0.000794201
-0.00082408
-0.000823764
-0.000823321
-0.000822773
-0.000822114
-0.000821344
-0.000820466
-0.000819487
-0.000818414
-0.000817257
-0.000816026
-0.00081473
-0.000813378
-0.000811979
-0.00081054
-0.000809068
-0.00080757
-0.000806052
-0.00080452
-0.000802981
-0.000801441
-0.000799905
-0.000798381
-0.000796874
-0.00079539
-0.000824297
-0.000823947
-0.000823482
-0.000822933
-0.000822289
-0.000821544
-0.000820699
-0.000819759
-0.000818728
-0.000817616
-0.00081643
-0.00081518
-0.000813875
-0.000812523
-0.000811132
-0.000809709
-0.000808259
-0.00080679
-0.000805308
-0.000803819
-0.000802329
-0.000800845
-0.000799371
-0.000797916
-0.000796483
-0.000824431
-0.00082404
-0.000823548
-0.000823001
-0.000822379
-0.000821667
-0.000820864
-0.000819969
-0.000818985
-0.00081792
-0.000816782
-0.000815579
-0.000814321
-0.000813015
-0.00081167
-0.000810291
-0.000808887
-0.000807464
-0.000806027
-0.000804584
-0.00080314
-0.000801702
-0.000800275
-0.000798866
-0.000797479
-0.00082446
-0.000824016
-0.000823496
-0.000822959
-0.00082237
-0.000821705
-0.000820954
-0.000820113
-0.000819183
-0.000818171
-0.000817082
-0.000815928
-0.000814715
-0.000813454
-0.000812152
-0.000810817
-0.000809454
-0.000808073
-0.000806678
-0.000805276
-0.000803874
-0.000802477
-0.000801092
-0.000799724
-0.000798378
-0.000824345
-0.000823839
-0.000823294
-0.000822784
-0.000822248
-0.000821648
-0.000820966
-0.000820191
-0.000819324
-0.000818369
-0.000817333
-0.000816227
-0.00081506
-0.000813842
-0.000812581
-0.000811285
-0.000809961
-0.000808617
-0.00080726
-0.000805895
-0.00080453
-0.00080317
-0.000801822
-0.00080049
-0.000799181
-0.000824021
-0.000823451
-0.000822897
-0.000822446
-0.000821999
-0.000821493
-0.0008209
-0.000820207
-0.000819411
-0.000818519
-0.000817538
-0.000816481
-0.000815358
-0.000814181
-0.000812957
-0.000811697