/*--------------------------------*- C++ -*----------------------------------*\
  =========                 |
  \\      /  F ield         | OpenFOAM: The Open Source CFD Toolbox
   \\    /   O peration     | Website:  https://openfoam.org
    \\  /    A nd           | Version:  13
     \\/     M anipulation  |
\*---------------------------------------------------------------------------*/
FoamFile
{
    format      ascii;
    class       surfaceScalarField;
    location    "10";
    object      phi;
}
// * * * * * * * * * * * * * * * * * * * * * * * * * * * * * * * * * * * * * //

dimensions      [0 3 -1 0 0 0 0];

internalField   nonuniform List<scalar> 
12590
(
-6.79007e-08
6.50162e-08
-1.52563e-07
8.35233e-08
-2.32437e-07
7.73209e-08
-2.68881e-07
3.68466e-08
-2.49966e-07
-2.24824e-08
-1.77465e-07
-7.14089e-08
-7.66678e-08
-1.04647e-07
3.12246e-08
-1.08869e-07
1.12372e-07
-8.37691e-08
1.54817e-07
-4.50201e-08
1.54725e-07
-2.1665e-09
1.13767e-07
3.79446e-08
5.00633e-08
6.13084e-08
-2.18218e-08
6.8195e-08
-7.94808e-08
5.425e-08
-1.13628e-07
3.05539e-08
-1.21541e-07
5.37055e-09
-1.32366e-07
7.87446e-09
-1.4846e-07
1.43896e-08
-1.52458e-07
1.43874e-09
-1.28755e-07
-2.52109e-08
-8.44415e-08
-4.76542e-08
-3.48871e-08
-5.22101e-08
-3.32107e-09
-3.68313e-08
-4.8294e-09
-4.77046e-08
1.10437e-07
-8.54105e-08
1.1985e-07
-7.37968e-08
6.25213e-08
9.79777e-09
-4.78601e-08
1.54737e-07
-1.68859e-07
3.22894e-07
-2.39987e-07
4.65654e-07
-2.48158e-07
5.62261e-07
-2.06115e-07
6.12006e-07
-1.34386e-07
6.17575e-07
-5.17561e-08
5.84966e-07
2.92542e-08
5.20574e-07
1.01011e-07
4.21979e-07
1.58654e-07
2.92624e-07
1.96149e-07
1.39368e-07
2.05928e-07
-1.18726e-08
1.7955e-07
-1.22939e-07
1.13919e-07
-1.82268e-07
6.47726e-08
-2.14834e-07
4.50338e-08
-2.18923e-07
3.6755e-09
-1.88544e-07
-5.7421e-08
-1.34348e-07
-1.0326e-07
-7.40432e-08
-1.16085e-07
-2.19634e-08
-9.22644e-08
-2.84747e-08
-4.47124e-09
1.12916e-07
4.15639e-08
7.22556e-08
1.86702e-07
-8.38165e-08
4.00573e-07
-2.62163e-07
6.06734e-07
-3.75583e-07
7.64793e-07
-3.98381e-07
8.63449e-07
-3.47282e-07
9.07268e-07
-2.50477e-07
9.04244e-07
-1.32088e-07
8.63024e-07
-1.14857e-08
7.93651e-07
9.76571e-08
7.02806e-07
1.90721e-07
5.94596e-07
2.65738e-07
4.69199e-07
3.20335e-07
3.23458e-07
3.50414e-07
1.54969e-07
3.46545e-07
-2.43633e-08
2.9144e-07
-1.56339e-07
1.94557e-07
-2.1785e-07
1.04674e-07
-2.26172e-07
9.77971e-09
-1.9445e-07
-9.07722e-08
-1.4456e-07
-1.55529e-07
-8.90102e-08
-1.72712e-07
-3.61212e-08
-1.49261e-07
-6.56563e-08
2.9606e-08
8.14398e-08
2.05277e-07
-1.044e-07
4.8463e-07
-3.6379e-07
7.46121e-07
-5.2403e-07
9.33171e-07
-5.63125e-07
1.04105e-06
-5.06671e-07
1.08299e-06
-3.89851e-07
1.07329e-06
-2.4151e-07
1.02492e-06
-8.46116e-08
9.47711e-07
6.46104e-08
8.48737e-07
1.9559e-07
7.35032e-07
3.03243e-07
6.14008e-07
3.85613e-07
4.89527e-07
4.43557e-07
3.60985e-07
4.77668e-07
2.22093e-07
4.84112e-07
6.5258e-08
4.46865e-07
-8.61854e-08
3.44369e-07
-1.74315e-07
1.91055e-07
-1.86133e-07
1.9714e-08
-1.47326e-07
-1.31334e-07
-9.89135e-08
-2.04611e-07
-5.95838e-08
-2.15544e-07
-2.5125e-08
-1.85539e-07
-9.19826e-08
1.22153e-07
-4.26733e-08
4.37026e-07
-4.20033e-07
7.41538e-07
-6.68856e-07
9.58984e-07
-7.41983e-07
1.0853e-06
-6.9004e-07
1.13975e-06
-5.61765e-07
1.13857e-06
-3.8951e-07
1.09419e-06
-1.98116e-07
1.01497e-06
-6.62224e-09
9.0912e-07
1.69249e-07
7.85978e-07
3.17589e-07
6.55893e-07
4.32093e-07
5.27905e-07
5.12422e-07
4.07408e-07
5.62726e-07
2.96049e-07
5.87703e-07
1.90547e-07
5.8838e-07
8.25167e-08
5.5368e-07
-2.94148e-08
4.55266e-07
-1.11979e-07
2.72282e-07
-1.19832e-07
2.58668e-08
-7.74728e-08
-1.75007e-07
-3.20705e-08
-2.52357e-07
2.96063e-10
-2.47777e-07
9.7018e-09
-1.98368e-07
-8.29249e-08
2.65861e-07
-3.09929e-07
6.01982e-07
-7.56806e-07
8.46019e-07
-9.13494e-07
9.93653e-07
-8.90199e-07
1.06895e-06
-7.66029e-07
1.08876e-06
-5.82343e-07
1.0626e-06
-3.64339e-07
9.9607e-07
-1.32768e-07
8.93618e-07
9.45087e-08
7.66156e-07
2.95505e-07
6.26256e-07
4.56344e-07
4.87557e-07
5.69613e-07
3.60887e-07
6.37907e-07
2.51979e-07
6.70358e-07
1.62353e-07
6.75958e-07
9.06521e-08
6.58886e-07
3.17848e-08
6.11516e-07
-2e-08
5.06363e-07
-5.86374e-08
3.09832e-07
-4.47521e-08
1.06405e-08
1.17663e-09
-2.22434e-07
4.94428e-08
-3.00493e-07
6.73935e-08
-2.68795e-07
5.11429e-08
-1.82899e-07
-3.2461e-08
3.46697e-07
-6.57455e-07
6.17202e-07
-1.02787e-06
7.83771e-07
-1.0806e-06
8.75463e-07
-9.8254e-07
9.13783e-07
-8.05095e-07
9.07356e-07
-5.76752e-07
8.59643e-07
-3.17818e-07
7.76705e-07
-5.11251e-08
6.6016e-07
2.09646e-07
5.21064e-07
4.33409e-07
3.76565e-07
5.99698e-07
2.41551e-07
7.0347e-07
1.27788e-07
7.5056e-07
4.05104e-08
7.56271e-07
-1.89178e-08
7.34141e-07
-5.26924e-08
6.91498e-07
-6.41658e-08
6.22227e-07
-5.71114e-08
4.98731e-07
-3.02576e-08
2.81827e-07
4.14362e-08
-6.26401e-08
1.08007e-07
-2.89837e-07
1.40724e-07
-3.34889e-07
1.34233e-07
-2.61748e-07
7.97513e-08
-1.30003e-07
4.66773e-08
3.14259e-07
-9.72291e-07
5.04659e-07
-1.21869e-06
6.08027e-07
-1.18457e-06
6.5218e-07
-1.02725e-06
6.51095e-07
-8.0488e-07
6.07882e-07
-5.346e-07
5.31102e-07
-2.42582e-07
4.38642e-07
3.88074e-08
3.12604e-07
3.33901e-07
1.76849e-07
5.67706e-07
4.73998e-08
7.27954e-07
-6.2133e-08
8.11744e-07
-1.44547e-07
8.31973e-07
-1.97871e-07
8.08499e-07
-2.22805e-07
7.58085e-07
-2.19355e-07
6.87121e-07
-1.84939e-07
5.87199e-07
-1.16231e-07
4.29356e-07
1.06682e-10
1.64263e-07
1.2839e-07
-1.9223e-07
1.86965e-07
-3.49226e-07
1.87617e-07
-3.35387e-07
1.47861e-07
-2.23278e-07
5.88523e-08
-4.22679e-08
1.05257e-07
2.22159e-07
-1.1948e-06
3.3696e-07
-1.33374e-06
3.73644e-07
-1.22164e-06
3.5739e-07
-1.0117e-06
2.99761e-07
-7.4817e-07
2.05755e-07
-4.4233e-07
9.10269e-08
-1.31567e-07
-9.627e-09
1.35387e-07
-1.14164e-07
4.36264e-07
-2.15544e-07
6.67528e-07
-3.08282e-07
8.19651e-07
-3.80301e-07
8.82828e-07
-4.27112e-07
8.78041e-07
-4.43249e-07
8.23748e-07
-4.31171e-07
7.45214e-07
-3.87621e-07
6.42762e-07
-3.01895e-07
5.00899e-07
-1.53773e-07
2.80546e-07
4.81742e-08
-3.87508e-08
1.49069e-07
-2.94473e-07
1.59816e-07
-3.60223e-07
1.36057e-07
-3.12849e-07
8.31214e-08
-1.71471e-07
9.25854e-09
3.18491e-08
1.13572e-07
1.19164e-07
-1.3141e-06
1.57507e-07
-1.37231e-06
1.23087e-07
-1.18764e-06
4.94358e-08
-9.38713e-07
-4.98196e-08
-6.50348e-07
-1.56077e-07
-3.38635e-07
-2.49688e-07
-4.11495e-08
-3.79488e-07
2.62983e-07
-4.87893e-07
5.4326e-07
-5.81552e-07
7.60178e-07
-6.44483e-07
8.81808e-07
-6.78618e-07
9.16189e-07
-6.89869e-07
8.88688e-07
-6.72349e-07
8.05515e-07
-6.2577e-07
6.98034e-07
-5.3576e-07
5.52046e-07
-3.77841e-07
3.42425e-07
-1.60982e-07
6.28608e-08
-2.90276e-08
-1.72136e-07
-3.26293e-08
-2.91411e-07
-4.35063e-08
-3.50777e-07
-3.90636e-08
-3.18414e-07
-4.67633e-08
-1.62321e-07
-3.2652e-08
1.0798e-08
8.11287e-08
2.99032e-08
-1.34423e-06
-1.51796e-08
-1.32734e-06
-1.02456e-07
-1.10082e-06
-2.12019e-07
-8.29907e-07
-3.32086e-07
-5.31472e-07
-4.52921e-07
-2.19641e-07
-5.8317e-07
8.70117e-08
-7.07565e-07
3.86046e-07
-8.10237e-07
6.44978e-07
-8.84822e-07
8.33917e-07
-9.18567e-07
9.14874e-07
-9.28768e-07
9.25768e-07
-9.14546e-07
8.73942e-07
-8.70145e-07
7.60525e-07
-7.86765e-07
6.14165e-07
-6.49681e-07
4.14279e-07
-4.8107e-07
1.7312e-07
-3.79157e-07
-4.01177e-08
-3.62245e-07
-1.89872e-07
-3.34379e-07
-3.20368e-07
-2.74243e-07
-4.11444e-07
-1.87183e-07
-4.05799e-07
-9.51439e-08
-2.59085e-07
-3.79394e-08
-4.4021e-08
4.02289e-08
-4.67021e-08
-1.2977e-06
-1.64253e-07
-1.21017e-06
-2.9441e-07
-9.71124e-07
-4.40132e-07
-6.85012e-07
-5.90985e-07
-3.81858e-07
-7.35268e-07
-7.70453e-08
-8.69004e-07
2.19319e-07
-9.8199e-07
4.9793e-07
-1.07084e-06
7.32911e-07
-1.11992e-06
8.82297e-07
-1.13529e-06
9.29636e-07
-1.13243e-06
9.2229e-07
-1.09723e-06
8.38169e-07
-1.02727e-06
6.89964e-07
-9.19057e-07
5.05322e-07
-7.97926e-07
2.92329e-07
-7.23319e-07
9.74886e-08
-7.05115e-07
-5.93742e-08
-6.69253e-07
-2.27092e-07
-6.02143e-07
-3.88204e-07
-5.07637e-07
-5.07463e-07
-3.67125e-07
-5.47945e-07
-1.81483e-07
-4.43123e-07
-5.24211e-08
-1.79947e-07
-1.55655e-08
-1.18078e-07
-1.18002e-06
-2.81767e-07
-1.04672e-06
-4.49455e-07
-8.03997e-07
-6.20118e-07
-5.15299e-07
-7.87334e-07
-2.15953e-07
-9.41584e-07
7.55983e-08
-1.07505e-06
3.5147e-07
-1.18465e-06
6.06514e-07
-1.26017e-06
8.07673e-07
-1.29324e-06
9.14622e-07
-1.30392e-06
9.39652e-07
-1.28768e-06
9.05382e-07
-1.23216e-06
7.81934e-07
-1.1461e-06
6.03119e-07
-1.05319e-06
4.1148e-07
-9.95543e-07
2.33556e-07
-9.73857e-07
7.45931e-08
-9.37544e-07
-9.71741e-08
-8.79542e-07
-2.86212e-07
-8.08477e-07
-4.60924e-07
-7.05956e-07
-6.10998e-07
-5.46839e-07
-7.07463e-07
-3.17259e-07
-6.75855e-07
-8.09077e-08
-4.20015e-07
-9.98099e-08
-1.77394e-07
-1.00246e-06
-3.74518e-07
-8.49794e-07
-5.6779e-07
-6.11142e-07
-7.54626e-07
-3.29404e-07
-9.29268e-07
-4.27019e-08
-1.08374e-06
2.28645e-07
-1.21702e-06
4.83654e-07
-1.32209e-06
7.10693e-07
-1.3888e-06
8.73572e-07
-1.41663e-06
9.41762e-07
-1.42243e-06
9.44768e-07
-1.38576e-06
8.67957e-07
-1.31238e-06
7.07778e-07
-1.23126e-06
5.20977e-07
-1.17719e-06
3.56357e-07
-1.15059e-06
2.05588e-07
-1.11281e-06
3.56414e-08
-1.05365e-06
-1.57751e-07
-9.9028e-07
-3.51022e-07
-9.15355e-07
-5.37321e-07
-8.14742e-07
-7.13063e-07
-6.68012e-07
-8.55416e-07
-4.44201e-07
-9.0077e-07
-1.52891e-07
-7.14101e-07
-2.5461e-07
-2.22263e-07
-7.80145e-07
-4.39684e-07
-6.32132e-07
-6.52995e-07
-3.98283e-07
-8.51934e-07
-1.31508e-07
-1.0283e-06
1.32412e-07
-1.18143e-06
3.80472e-07
-1.31255e-06
6.13833e-07
-1.41173e-06
8.08938e-07
-1.46917e-06
9.30366e-07
-1.49251e-06
9.64407e-07
-1.48238e-06
9.34019e-07
-1.42182e-06
8.0681e-07
-1.34151e-06
6.26563e-07
-1.28363e-06
4.6247e-07
-1.25239e-06
3.23832e-07
-1.21088e-06
1.63478e-07
-1.14415e-06
-3.2642e-08
-1.07062e-06
-2.32174e-07
-9.96649e-07
-4.2676e-07
-9.13992e-07
-6.22129e-07
-8.1589e-07
-8.12342e-07
-6.88472e-07
-9.84858e-07
-4.99502e-07
-1.0903e-06
-2.27273e-07
-9.88836e-07
-4.81519e-07
-2.40256e-07
-5.39515e-07
-4.81364e-07
-3.91169e-07
-7.11784e-07
-1.68873e-07
-9.15697e-07
7.11947e-08
-1.09148e-06
3.06216e-07
-1.2451e-06
5.33225e-07
-1.37223e-06
7.39608e-07
-1.46373e-06
8.99913e-07
-1.50773e-06
9.73471e-07
-1.51768e-06
9.7395e-07
-1.47661e-06
8.92326e-07
-1.39994e-06
7.29725e-07
-1.33443e-06
5.60555e-07
-1.29557e-06
4.23107e-07
-1.24796e-06
2.75746e-07
-1.16631e-06
8.12642e-08
-1.0718e-06
-1.28406e-07
-9.82991e-07
-3.21576e-07
-8.96929e-07
-5.16093e-07
-8.10143e-07
-7.10297e-07
-7.20928e-07
-9.04801e-07
-6.13417e-07
-1.09429e-06
-4.64402e-07
-1.24162e-06
-2.42384e-07
-1.21061e-06
-7.24284e-07
-2.48168e-07
-2.91675e-07
-5.13937e-07
-1.27289e-07
-7.51486e-07
6.74814e-08
-9.56047e-07
2.72426e-07
-1.13056e-06
4.8027e-07
-1.27915e-06
6.79328e-07
-1.39273e-06
8.52782e-07
-1.46147e-06
9.66944e-07
-1.48649e-06
9.98206e-07
-1.47423e-06
9.60396e-07
-1.41093e-06
8.29088e-07
-1.33948e-06
6.57101e-07
-1.28853e-06
5.10515e-07
-1.23517e-06
3.6841e-07
-1.13621e-06
1.78752e-07
-1.00707e-06
-5.11281e-08
-8.82346e-07
-2.50016e-07
-7.76778e-07
-4.32675e-07
-6.83752e-07
-6.08067e-07
-6.09504e-07
-7.88831e-07
-5.4342e-07
-9.75839e-07
-4.68527e-07
-1.17104e-06
-3.63524e-07
-1.34939e-06
-2.04549e-07
-1.37052e-06
-9.2814e-07
-2.70232e-07
-2.50588e-08
-5.40937e-07
1.41927e-07
-7.77117e-07
3.00066e-07
-9.76095e-07
4.70918e-07
-1.14428e-06
6.45037e-07
-1.27636e-06
8.10622e-07
-1.3708e-06
9.44694e-07
-1.4154e-06
1.0106e-06
-1.42024e-06
1.00109e-06
-1.37484e-06
9.14525e-07
-1.30608e-06
7.58539e-07
-1.24664e-06
5.99277e-07
-1.18704e-06
4.48896e-07
-1.07377e-06
2.58911e-07
-9.07948e-07
8.37162e-09
-7.34026e-07
-2.18508e-07
-5.94886e-07
-3.97057e-07
-4.72635e-07
-5.49676e-07
-3.88675e-07
-6.9852e-07
-3.36663e-07
-8.45424e-07
-3.0695e-07
-1.00746e-06
-2.84162e-07
-1.20173e-06
-2.34186e-07
-1.4005e-06
-1.41694e-07
-1.46155e-06
-1.06937e-06
-2.84732e-07
2.56868e-07
-5.51513e-07
4.06246e-07
-7.77279e-07
5.24802e-07
-9.65447e-07
6.56116e-07
-1.1138e-06
7.92559e-07
-1.22315e-06
9.17444e-07
-1.28729e-06
1.00697e-06
-1.30497e-06
1.02611e-06
-1.28366e-06
9.78259e-07
-1.22867e-06
8.57861e-07
-1.1699e-06
7.00347e-07
-1.10996e-06
5.37501e-07
-9.9762e-07
3.39156e-07
-8.08722e-07
6.65284e-08
-5.9825e-07
-1.9693e-07
-4.37317e-07
-3.86223e-07
-2.93248e-07
-5.35377e-07
-1.77521e-07
-6.72873e-07
-9.43936e-08
-7.83508e-07
-5.6681e-08
-8.87272e-07
-6.85802e-08
-1.00535e-06
-1.00742e-07
-1.17092e-06
-1.08272e-07
-1.39276e-06
-8.06622e-08
-1.48893e-06
-1.14755e-06
-2.8868e-07
5.43553e-07
-5.35213e-07
6.5149e-07
-7.38701e-07
7.26463e-07
-9.00977e-07
8.17954e-07
-1.02293e-06
9.1245e-07
-1.10223e-06
9.94932e-07
-1.13625e-06
1.03901e-06
-1.13412e-06
1.0221e-06
-1.1002e-06
9.42861e-07
-1.05199e-06
8.08799e-07
-1.00071e-06
6.47408e-07
-9.08097e-07
4.45558e-07
-7.27556e-07
1.56229e-07
-5.02672e-07
-1.57796e-07
-3.42543e-07
-3.60706e-07
-2.18364e-07
-5.08665e-07
-1.01614e-07
-6.5664e-07
8.22352e-09
-7.83692e-07
9.57359e-08
-8.7572e-07
1.38195e-07
-9.36544e-07
1.17117e-07
-9.86645e-07
2.9846e-08
-1.08676e-06
-8.46074e-08
-1.27939e-06
-1.51648e-07
-1.4177e-06
-1.2998e-06
-2.51956e-07
7.94262e-07
-4.48717e-07
8.469e-07
-6.04084e-07
8.81062e-07
-7.20117e-07
9.32277e-07
-7.95408e-07
9.86723e-07
-8.31546e-07
1.02935e-06
-8.33423e-07
1.03909e-06
-8.14774e-07
1.00182e-06
-7.84516e-07
9.11064e-07
-7.55844e-07
7.78711e-07
-7.13923e-07
6.05241e-07
-6.09798e-07
3.38983e-07
-4.44826e-07
-1.07556e-08
-3.30347e-07
-2.75051e-07
-2.79468e-07
-4.1296e-07
-2.26003e-07
-5.64059e-07
-1.63504e-07
-7.2053e-07
-1.02366e-07
-8.47307e-07
-5.09849e-08
-9.29808e-07
-2.72115e-08
-9.62675e-07
-7.30928e-08
-9.44619e-07
-2.38102e-07
-9.23379e-07
-5.38035e-07
-9.78596e-07
-8.57642e-07
-1.10017e-06
-9.76103e-07
-1.18063e-06
-1.9467e-07
9.87223e-07
-3.55352e-07
1.00619e-06
-4.77763e-07
1.00189e-06
-5.6459e-07
1.01837e-06
-6.16557e-07
1.03697e-06
-6.35912e-07
1.04711e-06
-6.30558e-07
1.03186e-06
-6.10656e-07
9.80118e-07
-5.83748e-07
8.82728e-07
-5.49791e-07
7.43881e-07
-4.81351e-07
5.34454e-07
-3.40608e-07
1.9692e-07
-2.09434e-07
-1.46254e-07
-1.64587e-07
-3.22727e-07
-1.39113e-07
-4.407e-07
-9.24717e-08
-6.12315e-07
-3.56298e-08
-7.7921e-07
2.47525e-08
-9.09119e-07
8.4365e-08
-9.90826e-07
1.38556e-07
-1.01866e-06
1.7514e-07
-9.82424e-07
1.52514e-07
-9.03262e-07
-4.76403e-09
-8.25022e-07
-2.3681e-07
-8.68518e-07
-9.12352e-07
-3.02456e-07
-1.35859e-07
1.12184e-06
-2.5877e-07
1.12756e-06
-3.49261e-07
1.09122e-06
-4.10293e-07
1.07761e-06
-4.41479e-07
1.06659e-06
-4.47053e-07
1.05056e-06
-4.34304e-07
1.01671e-06
-4.0925e-07
9.52972e-07
-3.74846e-07
8.46493e-07
-3.22133e-07
6.89133e-07
-2.27815e-07
4.39488e-07
-1.0421e-07
6.92025e-08
-4.72814e-08
-2.07389e-07
-1.31762e-08
-3.59633e-07
3.422e-08
-4.89948e-07
9.33984e-08
-6.73086e-07
1.59562e-07
-8.46615e-07
2.2155e-07
-9.72114e-07
2.7639e-07
-1.04639e-06
3.26711e-07
-1.06959e-06
3.69876e-07
-1.0277e-06
3.84504e-07
-9.2027e-07
3.50916e-07
-7.93963e-07
2.531e-07
-7.73057e-07
-9.22942e-07
2.61514e-07
-8.582e-08
1.2056e-06
-1.71329e-07
1.21139e-06
-2.33488e-07
1.15151e-06
-2.71568e-07
1.11375e-06
-2.85073e-07
1.07767e-06
-2.77268e-07
1.03963e-06
-2.53253e-07
9.8963e-07
-2.16908e-07
9.13437e-07
-1.67232e-07
7.94079e-07
-9.59014e-08
6.16268e-07
-6.66929e-09
3.47853e-07
7.78432e-08
-1.81546e-08
1.27213e-07
-2.58665e-07
1.67616e-07
-4.01628e-07
2.23901e-07
-5.47592e-07
2.96091e-07
-7.46439e-07
3.72924e-07
-9.24462e-07
4.41473e-07
-1.04138e-06
4.99191e-07
-1.10459e-06
5.50226e-07
-1.12144e-06
5.95137e-07
-1.07377e-06
6.21747e-07
-9.49492e-07
6.23992e-07
-7.98019e-07
6.1707e-07
-7.6911e-07
-9.76591e-07
6.69726e-07
-4.28839e-08
1.24712e-06
-9.64447e-08
1.26306e-06
-1.32247e-07
1.185e-06
-1.50351e-07
1.12922e-06
-1.48177e-07
1.07238e-06
-1.26264e-07
1.0134e-06
-8.72474e-08
9.45969e-07
-3.36867e-08
8.55173e-07
3.41409e-08
7.22685e-07
1.17223e-07
5.30338e-07
2.05243e-07
2.57647e-07
2.6412e-07
-7.91188e-08
2.95566e-07
-2.9166e-07
3.34448e-07
-4.41849e-07
4.12191e-07
-6.26457e-07
5.05404e-07
-8.40672e-07
5.90442e-07
-1.01035e-06
6.60454e-07
-1.11199e-06
7.17413e-07
-1.16197e-06
7.66121e-07
-1.17065e-06
8.0867e-07
-1.11776e-06
8.39862e-07
-9.82099e-07
8.61201e-07
-8.22538e-07
9.05923e-07
-8.13904e-07
-1.06366e-06
9.90921e-07
-4.43364e-09
1.24859e-06
-3.20322e-08
1.28805e-06
-4.13213e-08
1.19144e-06
-3.9322e-08
1.12451e-06
-2.35463e-08
1.05102e-06
1.16842e-08
9.72972e-07
6.41514e-08
8.86882e-07
1.32297e-07
7.81442e-07
2.12511e-07
6.3753e-07
3.01528e-07
4.37765e-07
3.86746e-07
1.69473e-07
4.29538e-07
-1.23736e-07
4.58055e-07
-3.22118e-07
5.1918e-07
-5.04355e-07
6.20348e-07
-7.28704e-07
7.23483e-07
-9.44739e-07
8.06327e-07
-1.09396e-06
8.70173e-07
-1.17636e-06
9.20175e-07
-1.21232e-06
9.5944e-07
-1.2105e-06
9.91435e-07
-1.15073e-06
1.01457e-06
-1.00733e-06
1.05171e-06
-8.59692e-07
1.13752e-06
-9.02825e-07
-1.18783e-06
1.26182e-06
3.22061e-08
1.21451e-06
2.85753e-08
1.28904e-06
3.96307e-08
1.17769e-06
6.28229e-08
1.09585e-06
9.49013e-08
1.01491e-06
1.39196e-07
9.21647e-07
2.00007e-07
8.18848e-07
2.76421e-07
6.98616e-07
3.63568e-07
5.44924e-07
4.53903e-07
3.43253e-07
5.33601e-07
8.72848e-08
5.69459e-07
-1.64092e-07
6.17802e-07
-3.72015e-07
7.15664e-07
-6.03581e-07
8.35068e-07
-8.49211e-07
9.35019e-07
-1.04563e-06
1.00612e-06
-1.16583e-06
1.05756e-06
-1.22835e-06
1.09298e-06
-1.24815e-06
1.11628e-06
-1.23435e-06
1.12941e-06
-1.16485e-06
1.14463e-06
-1.02326e-06
1.20522e-06
-9.23224e-07
1.34237e-06
-1.03871e-06
-1.35007e-06
1.50291e-06
7.65188e-08
1.13414e-06
9.46931e-08
1.26813e-06
1.05417e-07
1.1633e-06
1.42516e-07
1.05598e-06
1.90169e-07
9.59851e-07
2.46118e-07
8.58299e-07
3.13252e-07
7.44779e-07
3.91654e-07
6.12775e-07
4.78646e-07
4.52253e-07
5.66379e-07
2.51132e-07
6.33495e-07
1.36e-08
6.89055e-07
-2.2011e-07
7.86176e-07
-4.71839e-07
9.18364e-07
-7.37316e-07
1.03788e-06
-9.69816e-07
1.12122e-06
-1.12988e-06
1.17403e-06
-1.21937e-06
1.20703e-06
-1.26188e-06
1.22224e-06
-1.26377e-06
1.22535e-06
-1.23794e-06
1.21932e-06
-1.15962e-06
1.24234e-06
-1.0479e-06
1.35398e-06
-1.03382e-06
1.54192e-06
-1.22952e-06
-1.53602e-06
1.72861e-06
1.42127e-07
9.90404e-07
1.85741e-07
1.22252e-06
1.85745e-07
1.16103e-06
2.01329e-07
1.03411e-06
2.45508e-07
9.12057e-07
3.04548e-07
7.91993e-07
3.74365e-07
6.67167e-07
4.53801e-07
5.26419e-07
5.39942e-07
3.60291e-07
6.22341e-07
1.62848e-07
7.0444e-07
-6.84382e-08
8.17951e-07
-3.38936e-07
9.67074e-07
-6.21862e-07
1.10658e-06
-8.77805e-07
1.20626e-06
-1.07038e-06
1.26497e-06
-1.18936e-06
1.29604e-06
-1.25109e-06
1.30587e-06
-1.2722e-06
1.3003e-06
-1.25859e-06
1.28458e-06
-1.22269e-06
1.27874e-06
-1.15444e-06
1.34794e-06
-1.11718e-06
1.52522e-06
-1.21367e-06
1.75251e-06
-1.45492e-06
-1.72316e-06
1.9382e-06
2.22831e-07
7.63954e-07
3.17012e-07
1.12616e-06
3.25582e-07
1.14926e-06
3.12618e-07
1.0474e-06
3.16801e-07
9.00918e-07
3.51288e-07
7.53361e-07
4.08297e-07
6.04307e-07
4.84052e-07
4.45513e-07
5.726e-07
2.67258e-07
6.74044e-07
5.99508e-08
8.11054e-07
-2.11273e-07
9.81242e-07
-5.07304e-07
1.13738e-06
-7.79588e-07
1.25195e-06
-9.93288e-07
1.31964e-06
-1.13878e-06
1.34994e-06
-1.2203e-06
1.35758e-06
-1.25928e-06
1.34496e-06
-1.26e-06
1.32774e-06
-1.24168e-06
1.31231e-06
-1.20756e-06
1.35154e-06
-1.19411e-06
1.49969e-06
-1.26648e-06
1.73417e-06
-1.44661e-06
1.95996e-06
-1.68327e-06
-1.87993e-06
2.11771e-06
2.72464e-07
4.9069e-07
4.50395e-07
9.47097e-07
5.12731e-07
1.08736e-06
5.10167e-07
1.04525e-06
4.96686e-07
9.15205e-07
4.9829e-07
7.48587e-07
5.29578e-07
5.70293e-07
5.92588e-07
3.80338e-07
6.8511e-07
1.7327e-07
8.19996e-07
-7.73532e-08
9.86402e-07
-3.74296e-07
1.13765e-06
-6.61669e-07
1.25396e-06
-8.95686e-07
1.32402e-06
-1.06361e-06
1.35576e-06
-1.17091e-06
1.36579e-06
-1.23076e-06
1.35853e-06
-1.25241e-06
1.33894e-06
-1.2407e-06
1.32517e-06
-1.2281e-06
1.35631e-06
-1.23892e-06
1.48633e-06
-1.32437e-06
1.7095e-06
-1.48934e-06
1.94966e-06
-1.68887e-06
2.13595e-06
-1.86753e-06
-1.98964e-06
2.24446e-06
2.42788e-07
2.44988e-07
4.99901e-07
6.89473e-07
6.47523e-07
9.38021e-07
7.12589e-07
9.82876e-07
7.30241e-07
8.95647e-07
7.39027e-07
7.39983e-07
7.62636e-07
5.47573e-07
8.12758e-07
3.30816e-07
8.96032e-07
9.1305e-08
1.01098e-06
-1.89405e-07
1.11659e-06
-4.82255e-07
1.20547e-06
-7.47533e-07
1.26998e-06
-9.60262e-07
1.30893e-06
-1.10256e-06
1.32497e-06
-1.18708e-06
1.32217e-06
-1.22816e-06
1.30676e-06
-1.23719e-06
1.30572e-06
-1.23977e-06
1.3496e-06
-1.27199e-06
1.48249e-06
-1.37178e-06
1.6972e-06
-1.5392e-06
1.93137e-06
-1.72427e-06
2.12344e-06
-1.87931e-06
2.24394e-06
-1.99023e-06
-2.05202e-06
2.30737e-06
1.58953e-07
8.7973e-08
4.355e-07
4.1339e-07
6.56567e-07
7.18752e-07
7.90672e-07
8.47478e-07
8.66327e-07
8.22752e-07
9.10011e-07
6.98947e-07
9.43198e-07
5.17218e-07
9.79405e-07
2.98692e-07
1.02339e-06
5.15694e-08
1.06851e-06
-2.32668e-07
1.10287e-06
-5.11583e-07
1.12501e-06
-7.69955e-07
1.1415e-06
-9.75317e-07
1.15936e-06
-1.11973e-06
1.17935e-06
-1.20677e-06
1.20127e-06
-1.24995e-06
1.23949e-06
-1.27531e-06
1.31995e-06
-1.32008e-06
1.47155e-06
-1.42343e-06
1.68594e-06
-1.58611e-06
1.90879e-06
-1.76207e-06
2.09021e-06
-1.9052e-06
2.20973e-06
-2.00058e-06
2.27811e-06
-2.05658e-06
-2.0877e-06
2.31285e-06
7.7299e-08
1.28148e-08
3.09764e-07
1.81772e-07
5.46354e-07
4.82214e-07
7.21962e-07
6.75475e-07
8.37806e-07
7.09859e-07
9.09234e-07
6.32322e-07
9.47879e-07
4.85006e-07
9.61391e-07
2.92141e-07
9.51156e-07
6.92292e-08
9.10435e-07
-1.85269e-07
8.53127e-07
-4.52373e-07
8.49781e-07
-7.6198e-07
9.00874e-07
-1.02432e-06
9.77501e-07
-1.19502e-06
1.06098e-06
-1.28949e-06
1.15397e-06
-1.34245e-06
1.2764e-06
-1.39736e-06
1.44937e-06
-1.49274e-06
1.66362e-06
-1.63743e-06
1.87413e-06
-1.79644e-06
2.03987e-06
-1.92776e-06
2.14886e-06
-2.01473e-06
2.21493e-06
-2.06504e-06
2.25299e-06
-2.09648e-06
-2.11457e-06
2.28099e-06
4.42571e-08
-2.67326e-08
1.89905e-07
4.02943e-08
3.89329e-07
2.86009e-07
5.57009e-07
5.10852e-07
6.79661e-07
5.92923e-07
7.57823e-07
5.62154e-07
7.93181e-07
4.59294e-07
7.83384e-07
3.12949e-07
7.23144e-07
1.40944e-07
5.81381e-07
-3.24115e-08
5.1346e-07
-3.7532e-07
5.97768e-07
-8.42299e-07
7.49184e-07
-1.17264e-06
9.07392e-07
-1.35136e-06
1.06014e-06
-1.44111e-06
1.22198e-06
-1.50355e-06
1.41e-06
-1.58483e-06
1.61901e-06
-1.70133e-06
1.81541e-06
-1.83351e-06
1.96672e-06
-1.94756e-06
2.06533e-06
-2.02627e-06
2.12558e-06
-2.07444e-06
2.16488e-06
-2.10578e-06
2.19842e-06
-2.12804e-06
-2.14763e-06
2.23075e-06
4.70501e-08
-6.59736e-08
1.31903e-07
-3.70135e-08
2.49221e-07
1.72886e-07
3.734e-07
3.92071e-07
4.70602e-07
5.05375e-07
5.27994e-07
5.16166e-07
5.44234e-07
4.56169e-07
5.19448e-07
3.54069e-07
4.45008e-07
2.3588e-07
2.67848e-07
1.70445e-07
3.28774e-07
-4.27553e-07
5.31672e-07
-1.03979e-06
7.46996e-07
-1.38443e-06
9.44871e-07
-1.54718e-06
1.13593e-06
-1.63093e-06
1.33379e-06
-1.70058e-06
1.53579e-06
-1.78623e-06
1.71956e-06
-1.88465e-06
1.86115e-06
-1.97478e-06
1.95552e-06
-2.04168e-06
2.01562e-06
-2.08624e-06
2.0584e-06
-2.11761e-06
2.09744e-06
-2.14324e-06
2.13662e-06
-2.16878e-06
-2.19188e-06
2.182e-06
4.87726e-08
-1.06011e-07
1.02336e-07
-8.09688e-08
1.58074e-07
1.23673e-07
2.26094e-07
3.34853e-07
2.78667e-07
4.60498e-07
3.05708e-07
5.03115e-07
3.02532e-07
4.76591e-07
2.50405e-07
4.24353e-07
1.5221e-07
3.60496e-07
1.08823e-07
2.44551e-07
3.13582e-07
-6.25093e-07
5.55583e-07
-1.27687e-06
7.81858e-07
-1.60823e-06
9.95968e-07
-1.75958e-06
1.20426e-06
-1.83808e-06
1.40438e-06
-1.89991e-06
1.58199e-06
-1.96325e-06
1.72135e-06
-2.02355e-06
1.8193e-06
-2.07239e-06
1.88649e-06
-2.10865e-06
1.93774e-06
-2.13735e-06
1.98463e-06
-2.1639e-06
2.03201e-06
-2.19186e-06
2.085e-06
-2.21983e-06
-2.24951e-06
2.14208e-06
4.10233e-08
-1.39521e-07
6.62495e-08
-9.58221e-08
1.12817e-07
8.65618e-08
1.36781e-07
3.11217e-07
1.54496e-07
4.57057e-07
1.33012e-07
5.35207e-07
4.56871e-08
5.74935e-07
-8.8075e-08
5.69108e-07
-1.07248e-07
3.93037e-07
1.12002e-07
3.62573e-08
3.53162e-07
-8.61194e-07
5.91113e-07
-1.51326e-06
8.23031e-07
-1.83789e-06
1.04206e-06
-1.97722e-06
1.24365e-06
-2.03875e-06
1.41947e-06
-2.07505e-06
1.56085e-06
-2.1041e-06
1.66657e-06
-2.12886e-06
1.74468e-06
-2.15018e-06
1.80708e-06
-2.17079e-06
1.86369e-06
-2.19377e-06
1.9201e-06
-2.22059e-06
1.98007e-06
-2.2503e-06
2.042e-06
-2.28306e-06
-2.31449e-06
2.1081e-06
6.41401e-08
-1.9891e-07
1.01231e-07
-1.27079e-07
1.25885e-07
6.16279e-08
1.00864e-07
3.48378e-07
1.60455e-08
5.41957e-07
-1.13311e-07
6.70403e-07
-2.52677e-07
7.18479e-07
-2.79737e-07
5.9824e-07
-8.86939e-08
2.05195e-07
1.97228e-07
-2.46568e-07
4.29881e-07
-1.09403e-06
6.65147e-07
-1.74623e-06
8.87898e-07
-2.06002e-06
1.08841e-06
-2.1771e-06
1.26109e-06
-2.21088e-06
1.40265e-06
-2.21614e-06
1.51396e-06
-2.215e-06
1.60132e-06
-2.21587e-06
1.67391e-06
-2.22247e-06
1.73996e-06
-2.23663e-06
1.80468e-06
-2.2583e-06
1.87056e-06
-2.28588e-06
1.93683e-06
-2.31756e-06
2.00508e-06
-2.34952e-06
-2.38256e-06
2.07277e-06
9.20715e-08
-2.85971e-07
1.27318e-07
-1.58661e-07
4.41338e-08
1.50372e-07
-1.01544e-07
4.88406e-07
-2.55634e-07
6.98655e-07
-3.87675e-07
8.01162e-07
-4.21659e-07
7.49716e-07
-2.15349e-07
3.86806e-07
1.03998e-07
-1.234e-07
3.53187e-07
-5.0002e-07
5.64319e-07
-1.30487e-06
7.76106e-07
-1.95932e-06
9.69201e-07
-2.253e-06
1.13379e-06
-2.34153e-06
1.26966e-06
-2.34651e-06
1.37989e-06
-2.32609e-06
1.47036e-06
-2.30519e-06
1.54844e-06
-2.29368e-06
1.62068e-06
-2.29446e-06
1.6911e-06
-2.30681e-06
1.76113e-06
-2.32813e-06
1.83034e-06
-2.35529e-06
1.89925e-06
-2.38505e-06
1.96583e-06
-2.41715e-06
-2.44856e-06
2.03286e-06
6.18893e-08
-3.49024e-07
-2.71202e-08
-7.13797e-08
-2.05972e-07
3.2375e-07
-3.36971e-07
6.18753e-07
-4.26731e-07
7.83243e-07
-4.55474e-07
8.24642e-07
-3.33471e-07
6.16857e-07
8.61821e-08
-5.16549e-08
3.47441e-07
-3.9808e-07
5.57458e-07
-7.14454e-07
7.38608e-07
-1.4892e-06
9.13464e-07
-2.13479e-06
1.06149e-06
-2.40176e-06
1.18285e-06
-2.46324e-06
1.28263e-06
-2.44639e-06
1.36718e-06
-2.41058e-06
1.44298e-06
-2.38085e-06
1.51517e-06
-2.3657e-06
1.58643e-06
-2.36554e-06
1.65715e-06
-2.37737e-06
1.72656e-06
-2.39739e-06
1.79423e-06
-2.4224e-06
1.8592e-06
-2.45085e-06
1.92404e-06
-2.48039e-06
-2.51282e-06
1.98803e-06
-3.14027e-08
-3.25896e-07
-2.24711e-07
1.16053e-07
-3.55262e-07
4.50596e-07
-4.17358e-07
6.74814e-07
-4.28997e-07
7.8684e-07
-3.53068e-07
7.38102e-07
-1.02871e-08
2.53779e-07
3.73338e-07
-4.51961e-07
5.77713e-07
-6.12488e-07
7.76752e-07
-9.18944e-07
9.29351e-07
-1.64401e-06
1.06037e-06
-2.26765e-06
1.15896e-06
-2.50152e-06
1.23747e-06
-2.54241e-06
1.30531e-06
-2.51454e-06
1.369e-06
-2.47437e-06
1.43269e-06
-2.44452e-06
1.49797e-06
-2.43088e-06
1.56424e-06
-2.43168e-06
1.63006e-06
-2.44304e-06
1.69433e-06
-2.4615e-06
1.75657e-06
-2.4848e-06
1.81828e-06
-2.51131e-06
1.87881e-06
-2.54179e-06
-2.57414e-06
1.94108e-06
-1.14156e-07
-2.21865e-07
-2.72307e-07
2.68116e-07
-3.43721e-07
5.1528e-07
-3.46861e-07
6.67255e-07
-2.7381e-07
7.06776e-07
-7.30134e-08
5.16608e-07
3.05802e-07
-1.44762e-07
5.41819e-07
-6.98725e-07
7.58296e-07
-8.36801e-07
9.54675e-07
-1.11974e-06
1.09748e-06
-1.78937e-06
1.19399e-06
-2.36616e-06
1.25048e-06
-2.55909e-06
1.29253e-06
-2.58518e-06
1.33408e-06
-2.55652e-06
1.38008e-06
-2.52058e-06
1.4316e-06
-2.49613e-06
1.48741e-06
-2.48666e-06
1.5453e-06
-2.48949e-06
1.60345e-06
-2.5011e-06
1.66105e-06
-2.51897e-06
1.71836e-06
-2.54163e-06
1.77511e-06
-2.56876e-06
1.8335e-06
-2.59877e-06
-2.63323e-06
1.89238e-06
-1.37737e-07
-1.0372e-07
-2.16495e-07
3.37927e-07
-2.3287e-07
5.22298e-07
-1.82414e-07
6.12452e-07
-6.01179e-08
5.62567e-07
1.92402e-07
2.48355e-07
4.82945e-07
-4.45278e-07
6.78614e-07
-9.01631e-07
8.75359e-07
-1.039e-06
1.0765e-06
-1.32414e-06
1.22537e-06
-1.94084e-06
1.29946e-06
-2.44123e-06
1.32455e-06
-2.58548e-06
1.33904e-06
-2.60047e-06
1.3601e-06
-2.57806e-06
1.39077e-06
-2.55152e-06
1.43017e-06
-2.53565e-06
1.47565e-06
-2.53217e-06
1.52456e-06
-2.53836e-06
1.57516e-06
-2.55162e-06
1.6267e-06
-2.57039e-06
1.67883e-06
-2.5939e-06
1.73246e-06
-2.62129e-06
1.78633e-06
-2.65339e-06
-2.68831e-06
1.84224e-06
-9.94793e-08
-1.2574e-08
-1.20833e-07
3.53484e-07
-9.44439e-08
4.90158e-07
-9.81129e-09
5.09165e-07
1.44586e-07
4.05086e-07
3.85826e-07
-5.91055e-09
5.96976e-07
-6.62056e-07
7.56249e-07
-1.06517e-06
9.42343e-07
-1.22841e-06
1.15907e-06
-1.54341e-06
1.31504e-06
-2.09754e-06
1.36771e-06
-2.49578e-06
1.37109e-06
-2.58955e-06
1.36783e-06
-2.59775e-06
1.3743e-06
-2.5849e-06
1.39304e-06
-2.5705e-06
1.42239e-06
-2.56513e-06
1.45915e-06
-2.56897e-06
1.50056e-06
-2.57977e-06
1.54487e-06
-2.59589e-06
1.59113e-06
-2.61659e-06
1.63911e-06
-2.64146e-06
1.68784e-06
-2.67066e-06
1.73866e-06
-2.70296e-06
-2.73991e-06
1.79007e-06
-5.15142e-08
3.01977e-08
-2.43658e-08
3.19812e-07
3.11168e-08
4.25459e-07
1.37551e-07
4.07141e-07
2.6289e-07
2.64576e-07
4.61724e-07
-2.06931e-07
6.33019e-07
-8.35393e-07
7.85972e-07
-1.21978e-06
9.87637e-07
-1.4316e-06
1.21851e-06
-1.77489e-06
1.36191e-06
-2.24267e-06
1.39149e-06
-2.5252e-06
1.38247e-06
-2.58123e-06
1.37219e-06
-2.58791e-06
1.37117e-06
-2.58417e-06
1.38322e-06
-2.58274e-06
1.40636e-06
-2.58838e-06
1.43724e-06
-2.5999e-06
1.4732e-06
-2.61574e-06
1.51256e-06
-2.63521e-06
1.55433e-06
-2.65826e-06
1.5977e-06
-2.68498e-06
1.64305e-06
-2.71504e-06
1.6889e-06
-2.7495e-06
-2.78692e-06
1.73665e-06
-1.35735e-08
4.21788e-08
5.35899e-08
2.52051e-07
1.29247e-07
3.52382e-07
2.08496e-07
3.15877e-07
2.82139e-07
1.98235e-07
4.35233e-07
-3.59842e-07
6.06176e-07
-1.0056e-06
7.91628e-07
-1.40487e-06
1.02874e-06
-1.66858e-06
1.25812e-06
-2.00479e-06
1.37365e-06
-2.35734e-06
1.38216e-06
-2.5347e-06
1.36711e-06
-2.56622e-06
1.35397e-06
-2.57489e-06
1.35159e-06
-2.58192e-06
1.3622e-06
-2.59345e-06
1.38295e-06
-2.60919e-06
1.41057e-06
-2.62756e-06
1.44277e-06
-2.64795e-06
1.47817e-06
-2.67059e-06
1.51588e-06
-2.69592e-06
1.55555e-06
-2.72428e-06
1.59617e-06
-2.75624e-06
1.63876e-06
-2.79099e-06
-2.83019e-06
1.68183e-06
2.08455e-08
3.03627e-08
9.82912e-08
1.77083e-07
1.6998e-07
2.77843e-07
2.29456e-07
2.66856e-07
2.16335e-07
2.13349e-07
3.56946e-07
-4.96851e-07
5.71226e-07
-1.217e-06
8.11558e-07
-1.64331e-06
1.07135e-06
-1.92715e-06
1.2746e-06
-2.20687e-06
1.35214e-06
-2.43543e-06
1.34451e-06
-2.52608e-06
1.32742e-06
-2.5491e-06
1.31742e-06
-2.56485e-06
1.31975e-06
-2.58426e-06
1.33307e-06
-2.60679e-06
1.35402e-06
-2.63016e-06
1.38001e-06
-2.65356e-06
1.40952e-06
-2.67745e-06
1.44166e-06
-2.7027e-06