/*--------------------------------*- C++ -*----------------------------------*\
  =========                 |
  \\      /  F ield         | OpenFOAM: The Open Source CFD Toolbox
   \\    /   O peration     | Website:  https://openfoam.org
    \\  /    A nd           | Version:  13
     \\/     M anipulation  |
\*---------------------------------------------------------------------------*/
FoamFile
{
    format      ascii;
    class       surfaceScalarField;
    location    "10";
    object      phi;
}
// * * * * * * * * * * * * * * * * * * * * * * * * * * * * * * * * * * * * * //

dimensions      [0 3 -1 0 0 0 0];

internalField   nonuniform List<scalar> 
12590
(
1.89577e-12
-1.89581e-12
4.26384e-12
-2.36812e-12
6.24604e-12
-1.98226e-12
8.02332e-12
-1.77734e-12
9.66893e-12
-1.64566e-12
1.10238e-11
-1.35493e-12
1.21346e-11
-1.1108e-12
1.29298e-11
-7.95292e-13
1.33459e-11
-4.16152e-13
1.33302e-11
1.56114e-14
1.28519e-11
4.78325e-13
1.19092e-11
9.42606e-13
1.0535e-11
1.37412e-12
8.7967e-12
1.7383e-12
6.78836e-12
2.00829e-12
4.59423e-12
2.19409e-12
2.27092e-12
2.32326e-12
-8.52301e-15
2.2794e-12
-2.18641e-12
2.17784e-12
-4.33682e-12
2.15037e-12
-6.25063e-12
1.91377e-12
-7.54064e-12
1.28997e-12
-7.67129e-12
1.30593e-13
-4.95384e-12
-2.7175e-12
-4.95385e-12
1.51355e-12
-3.40943e-12
3.33034e-12
-4.18498e-12
4.83906e-12
-3.49107e-12
6.23601e-12
-3.17437e-12
7.63176e-12
-3.0415e-12
8.8955e-12
-2.61876e-12
1.00769e-11
-2.29229e-12
1.11559e-11
-1.87436e-12
1.21026e-11
-1.36297e-12
1.28833e-11
-7.65132e-13
1.34615e-11
-9.99811e-14
1.38037e-11
6.00352e-13
1.38862e-11
1.29159e-12
1.37034e-11
1.92105e-12
1.32709e-11
2.44068e-12
1.26202e-11
2.84467e-12
1.17872e-11
3.15629e-12
1.06885e-11
3.37794e-12
9.48437e-12
3.38194e-12
8.23443e-12
3.40024e-12
6.73616e-12
3.41197e-12
4.99214e-12
3.03392e-12
3.22928e-12
1.89337e-12
1.06776e-12
-5.56058e-13
-3.8861e-12
1.46451e-12
-4.87402e-12
3.06449e-12
-5.78506e-12
4.43125e-12
-4.85793e-12
5.7705e-12
-4.51372e-12
7.16472e-12
-4.43582e-12
8.7976e-12
-4.25175e-12
1.02147e-11
-3.70953e-12
1.16322e-11
-3.29191e-12
1.29984e-11
-2.72921e-12
1.42541e-11
-2.02102e-12
1.53214e-11
-1.16728e-12
1.61167e-11
-1.95118e-13
1.65621e-11
8.46098e-13
1.66007e-11
1.88239e-12
1.622e-11
2.82133e-12
1.5429e-11
3.63555e-12
1.42165e-11
4.36873e-12
1.25527e-11
5.04161e-12
1.05982e-11
5.33645e-12
8.62297e-12
5.37535e-12
6.60402e-12
5.43084e-12
4.56932e-12
5.06854e-12
2.77651e-12
3.68609e-12
9.79005e-13
1.24136e-12
-2.9071e-12
1.56213e-12
-6.43625e-12
3.05311e-12
-7.27617e-12
4.34071e-12
-6.14565e-12
5.64718e-12
-5.82031e-12
7.03231e-12
-5.82107e-12
8.58843e-12
-5.80799e-12
1.0341e-11
-5.46217e-12
1.18959e-11
-4.847e-12
1.34694e-11
-4.30277e-12
1.49751e-11
-3.52688e-12
1.63181e-11
-2.51034e-12
1.73854e-11
-1.26256e-12
1.80604e-11
1.71039e-13
1.82361e-11
1.70655e-12
1.78501e-11
3.20722e-12
1.69434e-11
4.54215e-12
1.55619e-11
5.75013e-12
1.36773e-11
6.92621e-12
1.12533e-11
7.76027e-12
8.86706e-12
7.76154e-12
6.61199e-12
7.68583e-12
4.54647e-12
7.13397e-12
2.6475e-12
5.58495e-12
9.69963e-13
2.9188e-12
-1.93715e-12
1.67832e-12
-8.11469e-12
3.07615e-12
-8.67414e-12
4.26962e-12
-7.33927e-12
5.48553e-12
-7.03638e-12
6.76505e-12
-7.10074e-12
8.15025e-12
-7.19333e-12
9.88298e-12
-7.19504e-12
1.1469e-11
-6.43315e-12
1.30877e-11
-5.92164e-12
1.46838e-11
-5.12312e-12
1.6172e-11
-3.99864e-12
1.74309e-11
-2.52161e-12
1.83212e-11
-7.19392e-13
1.86996e-11
1.32811e-12
1.84402e-11
3.46653e-12
1.75221e-11
5.46006e-12
1.61132e-11
7.15901e-12
1.42983e-11
8.74097e-12
1.18727e-11
1.01857e-11
9.20003e-12
1.04341e-11
6.81894e-12
1.00668e-11
4.76892e-12
9.18389e-12
2.77493e-12
7.57883e-12
1.06212e-12
4.63151e-12
-8.75051e-13
1.78035e-12
-9.89519e-12
3.08134e-12
-9.97532e-12
4.15809e-12
-8.4162e-12
5.22478e-12
-8.10325e-12
6.30721e-12
-8.18335e-12
7.45306e-12
-8.33936e-12
8.7542e-12
-8.49635e-12
1.06061e-11
-8.2852e-12
1.20665e-11
-7.38223e-12
1.36225e-11
-6.67921e-12
1.51732e-11
-5.54956e-12
1.66051e-11
-3.95365e-12
1.7768e-11
-1.88242e-12
1.8491e-11
6.0501e-13
1.85916e-11
3.36577e-12
1.79275e-11
6.12403e-12
1.65889e-11
8.49754e-12
1.48734e-11
1.04563e-11
1.2804e-11
1.22551e-11
9.89339e-12
1.33446e-11
7.30227e-12
1.26578e-11
5.04686e-12
1.14392e-11
3.03453e-12
9.59103e-12
1.12682e-12
6.5391e-12
2.51751e-13
1.87974e-12
-1.17751e-11
3.10152e-12
-1.11973e-11
4.07079e-12
-9.3857e-12
4.98017e-12
-9.01284e-12
5.84945e-12
-9.05285e-12
6.73747e-12
-9.22759e-12
7.73336e-12
-9.49245e-12
9.16465e-12
-9.71669e-12
1.0657e-11
-8.87475e-12
1.21266e-11
-8.14898e-12
1.37087e-11
-7.13186e-12
1.53165e-11
-5.56168e-12
1.68184e-11
-3.38446e-12
1.80324e-11
-6.09124e-13
1.87357e-11
2.66234e-12
1.86754e-11
6.18418e-12
1.76633e-11
9.50951e-12
1.60282e-11
1.20912e-11
1.40141e-11
1.42691e-11
1.1254e-11
1.61046e-11
8.18146e-12
1.57302e-11
5.44851e-12
1.4172e-11
3.65252e-12
1.13869e-11
1.25442e-12
8.93707e-12
1.50614e-12
1.98869e-12
-1.3764e-11
3.17051e-12
-1.23794e-11
4.0682e-12
-1.02837e-11
4.84771e-12
-9.79263e-12
5.52738e-12
-9.73279e-12
6.17252e-12
-9.87299e-12
6.87567e-12
-1.01959e-11
7.78865e-12
-1.06299e-11
9.39726e-12
-1.04836e-11
1.0713e-11
-9.46497e-12
1.22441e-11
-8.6631e-12
1.39614e-11
-7.27926e-12
1.57849e-11
-5.20809e-12
1.75465e-11
-2.37095e-12
1.89975e-11
1.21117e-12
1.98109e-11
5.37061e-12
1.96052e-11
9.71514e-12
1.81702e-11
1.3526e-11
1.62137e-11
1.62254e-11
1.38787e-11
1.84395e-11
1.01167e-11
1.9492e-11
6.83364e-12
1.7455e-11
4.54955e-12
1.36708e-11
1.31867e-12
1.21678e-11
2.82479e-12
2.11655e-12
-1.58809e-11
3.32032e-12
-1.35835e-11
4.21655e-12
-1.11803e-11
4.94525e-12
-1.05217e-11
5.52816e-12
-1.0316e-11
6.0339e-12
-1.03791e-11
6.54665e-12
-1.07089e-11
7.1696e-12
-1.12532e-11
8.38536e-12
-1.16996e-11
9.8712e-12
-1.09511e-11
1.12255e-11
-1.00177e-11
1.29449e-11
-8.99889e-12
1.49926e-11
-7.25594e-12
1.72554e-11
-4.63399e-12
1.94959e-11
-1.02953e-12
2.13379e-11
3.5284e-12
2.22769e-11
8.77602e-12
2.17138e-11
1.4089e-11
1.96218e-11
1.83172e-11
1.68912e-11
2.117e-11
1.31647e-11
2.32184e-11
8.79172e-12
2.18278e-11
5.20375e-12
1.72586e-11
1.80095e-12
1.55704e-11
4.62571e-12
2.26373e-12
-1.81449e-11
3.56486e-12
-1.48851e-11
4.55697e-12
-1.21728e-11
5.35778e-12
-1.13229e-11
5.99699e-12
-1.09556e-11
6.54518e-12
-1.09276e-11
7.07322e-12
-1.12373e-11
7.65672e-12
-1.1837e-11
8.56102e-12
-1.26042e-11
9.93948e-12
-1.23298e-11
1.11798e-11
-1.12583e-11
1.28051e-11
-1.06244e-11
1.489e-11
-9.34106e-12
1.74369e-11
-7.18117e-12
2.02894e-11
-3.88217e-12
2.30792e-11
7.38398e-13
2.52421e-11
6.61288e-12
2.60198e-11
1.33111e-11
2.45584e-11
1.97785e-11
2.13814e-11
2.43468e-11
1.75919e-11
2.70078e-11
1.14456e-11
2.79739e-11
6.08173e-12
2.26223e-11
2.41968e-12
1.92323e-11
7.04535e-12
2.42181e-12
-2.05672e-11
3.89839e-12
-1.63622e-11
5.09977e-12
-1.33747e-11
6.1263e-12
-1.23499e-11
7.01663e-12
-1.18464e-11
7.83736e-12
-1.17488e-11
8.63742e-12
-1.20378e-11
9.45428e-12
-1.26542e-11
1.03995e-11
-1.35498e-11
1.1611e-11
-1.35417e-11
1.29025e-11
-1.25501e-11
1.43452e-11
-1.20673e-11
1.62367e-11
-1.12328e-11
1.86986e-11
-9.64329e-12
2.17278e-11
-6.91163e-12
2.50413e-11
-2.57529e-12
2.81672e-11
3.48679e-12
3.04669e-11
1.10112e-11
3.0565e-11
1.96803e-11
2.75149e-11
2.73968e-11
2.24085e-11
3.2114e-11
1.64663e-11
3.39159e-11
8.89811e-12
3.01903e-11
3.07068e-12
2.50596e-11
1.0116e-11
2.57641e-12
-2.31441e-11
4.30244e-12
-1.80888e-11
5.83579e-12
-1.49086e-11
7.26365e-12
-1.37784e-11
8.63465e-12
-1.3218e-11
1.00061e-11
-1.31207e-11
1.13985e-11
-1.34307e-11
1.28049e-11
-1.4061e-11
1.42366e-11
-1.49819e-11
1.56169e-11
-1.49223e-11
1.70048e-11
-1.39382e-11
1.84725e-11
-1.35353e-11
2.01068e-11
-1.28672e-11
2.21018e-11
-1.16385e-11
2.45225e-11
-9.33251e-12
2.74854e-11
-5.53837e-12
3.08916e-11
8.04153e-14
3.40507e-11
7.85198e-12
3.63257e-11
1.74051e-11
3.54537e-11
2.82685e-11
2.98986e-11
3.7669e-11
2.22323e-11
4.1582e-11
1.34757e-11
3.89468e-11
4.27759e-12
3.42575e-11
1.43935e-11
2.70941e-12
-2.58541e-11
4.74876e-12
-2.01289e-11
6.73781e-12
-1.68984e-11
8.7554e-12
-1.57966e-11
1.08603e-11
-1.53235e-11
1.30961e-11
-1.53572e-11
1.54512e-11
-1.57862e-11
1.78685e-11
-1.64787e-11
2.02868e-11
-1.74005e-11
2.21922e-11
-1.68281e-11
2.42298e-11
-1.59761e-11
2.62501e-11
-1.55559e-11
2.80743e-11
-1.46916e-11
2.9749e-11
-1.33135e-11
3.17631e-11
-1.13467e-11
3.44193e-11
-8.19479e-12
3.76063e-11
-3.10668e-12
4.08892e-11
4.5689e-12
4.31691e-11
1.51251e-11
4.34985e-11
2.7939e-11
4.00783e-11
4.10891e-11
3.04994e-11
5.11607e-11
1.91163e-11
5.03298e-11
6.2718e-12
4.71018e-11
2.06653e-11
2.80174e-12
-2.86565e-11
5.20204e-12
-2.25299e-11
7.75833e-12
-1.94554e-11
1.05454e-11
-1.85844e-11
1.36313e-11
-1.84101e-11
1.70455e-11
-1.8772e-11
2.0754e-11
-1.94953e-11
2.46625e-11
-2.03877e-11
2.8635e-11
-2.13734e-11
3.179e-11
-1.99835e-11
3.531e-11
-1.94964e-11
3.83932e-11
-1.86393e-11
4.10876e-11
-1.73862e-11
4.34383e-11
-1.56644e-11
4.5205e-11
-1.31135e-11
4.66281e-11
-9.61807e-12
4.86649e-11
-5.14361e-12
5.10339e-11
2.19978e-12
5.3284e-11
1.28749e-11
5.39026e-11
2.73203e-11
5.06133e-11
4.43782e-11
4.21289e-11
5.9645e-11
2.69076e-11
6.5551e-11
9.83652e-12
6.41727e-11
3.05018e-11
2.83796e-12
-3.14952e-11
5.62602e-12
-2.53188e-11
8.83582e-12
-2.2666e-11
1.25456e-11
-2.22949e-11
1.68321e-11
-2.26973e-11
2.16927e-11
-2.36331e-11
2.71356e-11
-2.49388e-11
3.31102e-11
-2.63628e-11
3.94192e-11
-2.76828e-11
4.56375e-11
-2.62021e-11
5.15115e-11
-2.53706e-11
5.67385e-11
-2.38666e-11
6.09465e-11
-2.15943e-11
6.39924e-11
-1.87105e-11
6.63102e-11
-1.54314e-11
6.78297e-11
-1.11377e-11
6.77022e-11
-5.01615e-12
6.73624e-11
2.53942e-12
6.79904e-11
1.22468e-11
6.79004e-11
2.74102e-11
6.48631e-11
4.74154e-11
5.53636e-11
6.91443e-11
3.86299e-11
8.22846e-11
1.49721e-11
8.78303e-11
4.54739e-11
2.80771e-12
-3.43036e-11
5.98601e-12
-2.84979e-11
9.89639e-12
-2.65772e-11
1.46325e-11
-2.70317e-11
2.03243e-11
-2.83899e-11
2.70623e-11
-3.03717e-11
3.45876e-11
-3.24647e-11
4.25899e-11
-3.43656e-11
5.08211e-11
-3.59144e-11
5.9621e-11
-3.50024e-11
6.8341e-11
-3.40909e-11
7.66033e-11
-3.21291e-11
8.40734e-11
-2.90646e-11
9.02509e-11
-2.48882e-11
9.44435e-11
-1.96241e-11
9.6548e-11
-1.32423e-11
9.73385e-11
-5.80679e-12
9.65763e-11
3.30157e-12
9.30092e-11
1.58138e-11
8.90919e-11
3.13274e-11
8.50851e-11
5.1422e-11
7.55673e-11
7.86621e-11
5.52931e-11
1.02559e-10
2.37297e-11
1.19394e-10
6.92036e-11
2.73208e-12
-3.70363e-11
6.28698e-12
-3.20534e-11
1.08836e-11
-3.11744e-11
1.66501e-11
-3.27989e-11
2.36497e-11
-3.539e-11
3.17671e-11
-3.84899e-11
4.09505e-11
-4.16487e-11
5.10989e-11
-4.45147e-11
6.19435e-11
-4.67595e-11
7.3781e-11
-4.68403e-11
8.61125e-11
-4.64228e-11
9.86293e-11
-4.46462e-11
1.1062e-10
-4.10559e-11
1.21428e-10
-3.56963e-11
1.30367e-10
-2.85635e-11
1.36613e-10
-1.94878e-11
1.39212e-10
-8.40614e-12
1.37616e-10
4.89751e-12
1.33359e-10
2.00702e-11
1.28073e-10
3.66136e-11
1.19487e-10
6.00072e-11
1.07977e-10
9.01725e-11
8.47502e-11
1.25785e-10
4.05401e-11
1.63604e-10
1.09744e-10
2.42158e-12
-3.94583e-11
6.25628e-12
-3.58886e-11
1.17023e-11
-3.66209e-11
1.86661e-11
-3.97632e-11
2.70787e-11
-4.38033e-11
3.69907e-11
-4.84026e-11
4.83314e-11
-5.29901e-11
6.08145e-11
-5.69985e-11
7.40708e-11
-6.00164e-11
8.90389e-11
-6.18091e-11
1.04791e-10
-6.21758e-11
1.21076e-10
-6.09311e-11
1.37882e-10
-5.78627e-11
1.54209e-10
-5.2023e-11
1.69475e-10
-4.38296e-11
1.8318e-10
-3.31935e-11
1.94437e-10
-1.9663e-11
2.02233e-10
-2.89913e-12
2.03998e-10
1.8305e-11
1.98343e-10
4.22687e-11
1.87482e-10
7.08682e-11
1.70166e-10
1.07487e-10
1.43575e-10
1.52376e-10
8.06324e-11
2.26547e-10
1.90376e-10
2.18801e-12
-4.16465e-11
6.38827e-12
-4.00891e-11
1.26837e-11
-4.29167e-11
2.07878e-11
-4.78679e-11
3.0802e-11
-5.38182e-11
4.26039e-11
-6.02053e-11
5.61337e-11
-6.65209e-11
7.09699e-11
-7.18357e-11
8.69965e-11
-7.60439e-11
1.04327e-10
-7.91407e-11
1.2309e-10
-8.09392e-11
1.43196e-10
-8.10383e-11
1.64173e-10
-7.88401e-11
1.849e-10
-7.27508e-11
2.07002e-10
-6.59316e-11
2.28904e-10
-5.50959e-11
2.50479e-10
-4.12385e-11
2.71484e-10
-2.39046e-11
2.91532e-10
-1.74344e-12
3.06775e-10
2.70253e-11
3.10571e-10
6.70726e-11
2.97004e-10
1.21054e-10
2.62912e-10
1.86468e-10
1.88788e-10
3.00671e-10
3.79164e-10
2.01159e-12
-4.36582e-11
6.73796e-12
-4.48156e-11
1.36783e-11
-4.98573e-11
2.29633e-11
-5.71535e-11
3.45092e-11
-6.53649e-11
4.82068e-11
-7.39039e-11
6.37331e-11
-8.20483e-11
8.10774e-11
-8.91813e-11
1.00079e-10
-9.50471e-11
1.20597e-10
-9.96594e-11
1.42267e-10
-1.02611e-10
1.64832e-10
-1.03604e-10
1.88281e-10
-1.0229e-10
2.13883e-10
-9.83541e-11
2.39999e-10
-9.2048e-11
2.66155e-10
-8.12522e-11
2.93887e-10
-6.89713e-11
3.2418e-10
-5.41978e-11
3.60536e-10
-3.80995e-11
4.031e-10
-1.55397e-11
4.53132e-10
1.70404e-11
5.07877e-10
6.63097e-11
5.61682e-10
1.32663e-10
5.31959e-10
3.30394e-10
9.11123e-10
2.07537e-12
-4.57336e-11
6.8649e-12
-4.96053e-11
1.39998e-11
-5.69925e-11
2.31748e-11
-6.63291e-11
3.42199e-11
-7.6411e-11
4.69652e-11
-8.66503e-11
6.12697e-11
-9.63541e-11
7.72503e-11
-1.05163e-10
9.49593e-11
-1.12758e-10
1.14158e-10
-1.1886e-10
1.34814e-10
-1.23267e-10
1.5692e-10
-1.25711e-10
1.80544e-10
-1.25916e-10
2.0579e-10
-1.236e-10
2.32076e-10
-1.18335e-10
2.61312e-10
-1.10489e-10
2.92575e-10
-1.00235e-10
3.24531e-10
-8.6154e-11
3.59586e-10
-7.31543e-11
3.99712e-10
-5.56667e-11
4.50244e-10
-3.34911e-11
5.23017e-10
-6.46327e-12
6.37016e-10
1.86641e-11
9.52974e-10
1.44365e-11
-9.70003e-11
1.9611e-09
2.14114e-12
-4.78748e-11
7.29363e-12
-5.4758e-11
1.49897e-11
-6.4689e-11
2.4971e-11
-7.63111e-11
3.70205e-11
-8.84616e-11
5.09843e-11
-1.00615e-10
6.68713e-11
-1.12243e-10
8.45881e-11
-1.22882e-10
1.04086e-10
-1.32257e-10
1.25356e-10
-1.40131e-10
1.484e-10
-1.46312e-10
1.73268e-10
-1.5058e-10
2.00068e-10
-1.52717e-10
2.28979e-10
-1.52512e-10
2.60472e-10
-1.49829e-10
2.9475e-10
-1.44768e-10
3.32025e-10
-1.3751e-10
3.73751e-10
-1.27881e-10
4.19035e-10
-1.18438e-10
4.70192e-10
-1.06824e-10
5.33784e-10
-9.70832e-11
6.15822e-10
-8.85008e-11
7.2317e-10
-8.86841e-11
8.55215e-10
-1.17609e-10
-1.96405e-10
9.5462e-10
2.19086e-12
-5.00657e-11
7.63487e-12
-6.02022e-11
1.5834e-11
-7.28886e-11
2.65154e-11
-8.69933e-11
3.94676e-11
-1.01415e-10
5.45645e-11
-1.15714e-10
7.17113e-11
-1.29391e-10
9.08649e-11
-1.42037e-10
1.11996e-10
-1.53389e-10
1.35119e-10
-1.63256e-10
1.60273e-10
-1.71467e-10
1.87544e-10
-1.77852e-10
2.1708e-10
-1.82254e-10
2.49114e-10
-1.84547e-10
2.83969e-10
-1.84685e-10
3.21913e-10
-1.82712e-10
3.63274e-10
-1.78872e-10
4.08968e-10
-1.73575e-10
4.58415e-10
-1.67885e-10
5.13855e-10
-1.62265e-10
5.7529e-10
-1.58519e-10
6.44303e-10
-1.57513e-10
7.1628e-10
-1.60661e-10
7.67526e-10
-1.68854e-10
-1.66758e-10
7.37879e-10
2.21251e-12
-5.22783e-11
7.87479e-12
-6.58647e-11
1.64713e-11
-8.14855e-11
2.77196e-11
-9.82425e-11
4.14072e-11
-1.15104e-10
5.73882e-11
-1.31696e-10
7.55658e-11
-1.4757e-10
9.58938e-11
-1.62366e-10
1.18356e-10
-1.75853e-10
1.42968e-10
-1.8787e-10
1.69782e-10
-1.98283e-10
1.98894e-10
-2.06965e-10
2.30446e-10
-2.13807e-10
2.6463e-10
-2.18731e-10
3.01665e-10
-2.2172e-10
3.41795e-10
-2.22843e-10
3.85224e-10
-2.22302e-10
4.32117e-10
-2.20469e-10
4.82143e-10
-2.17911e-10
5.35012e-10
-2.15134e-10
5.89321e-10
-2.12828e-10
6.41871e-10
-2.10062e-10
6.84615e-10
-2.03406e-10
6.9965e-10
-1.83889e-10
-1.30936e-10
6.63827e-10
2.19946e-12
-5.44778e-11
7.99537e-12
-7.16608e-11
1.68706e-11
-9.03612e-11
2.85341e-11
-1.09907e-10
4.27675e-11
-1.29338e-10
5.94153e-11
-1.48345e-10
7.83751e-11
-1.66532e-10
9.95896e-11
-1.83583e-10
1.23037e-10
-1.99301e-10
1.48726e-10
-2.13561e-10
1.76699e-10
-2.26258e-10
2.07034e-10
-2.37301e-10
2.39837e-10
-2.4661e-10
2.75234e-10
-2.54129e-10
3.13353e-10
-2.5984e-10
3.54291e-10
-2.63781e-10
3.98035e-10
-2.66045e-10
4.44346e-10
-2.6678e-10
4.92561e-10
-2.66126e-10
5.41414e-10
-2.63987e-10
5.88253e-10
-2.59667e-10
6.29215e-10
-2.51025e-10
6.57956e-10
-2.32146e-10
6.65389e-10
-1.91321e-10
-1.1242e-10
6.46872e-10
2.15162e-12
-5.66295e-11
8.00028e-12
-7.75096e-11
1.70386e-11
-9.94e-11
2.89693e-11
-1.21838e-10
4.35697e-11
-1.4394e-10
6.06739e-11
-1.65451e-10
8.01688e-11
-1.86028e-10
1.01983e-10
-2.05399e-10
1.26081e-10
-2.23401e-10
1.52455e-10
-2.39936e-10
1.81124e-10
-2.54929e-10
2.1213e-10
-2.68308e-10
2.45525e-10
-2.80006e-10
2.8136e-10
-2.89965e-10
3.19659e-10
-2.9814e-10
3.6037e-10
-3.04492e-10
4.03292e-10
-3.08967e-10
4.4796e-10
-3.11448e-10
4.93478e-10
-3.11645e-10
5.38327e-10
-3.08836e-10
5.80114e-10
-3.01454e-10
6.15364e-10
-2.86274e-10
6.40321e-10
-2.57104e-10
6.52863e-10
-2.03863e-10
-1.14052e-10
6.54496e-10
2.07046e-12
-5.86999e-11
7.89709e-12
-8.33364e-11
1.69888e-11
-1.08492e-10
2.90472e-11
-1.33897e-10
4.38439e-11
-1.58737e-10
6.12039e-11
-1.82812e-10
8.10004e-11
-2.05826e-10
1.03147e-10
-2.27547e-10
1.2759e-10
-2.47845e-10
1.54297e-10
-2.66645e-10
1.83257e-10
-2.83891e-10
2.14469e-10
-2.99521e-10
2.47931e-10
-3.13468e-10
2.83619e-10
-3.25654e-10
3.21461e-10
-3.35983e-10
3.61293e-10
-3.44325e-10
4.02798e-10
-3.50472e-10
4.45414e-10
-3.54065e-10
4.88232e-10
-3.54463e-10
5.299e-10
-3.50505e-10
5.68593e-10
-3.40147e-10
6.02213e-10
-3.19894e-10
6.29293e-10
-2.84184e-10
6.50577e-10
-2.25148e-10
-1.3367e-10
6.70195e-10
1.95927e-12
-6.06591e-11
7.69827e-12
-8.90754e-11
1.67446e-11
-1.17539e-10
2.88029e-11
-1.45956e-10
4.36412e-11
-1.73577e-10
6.10747e-11
-2.00247e-10
8.09646e-11
-2.25718e-10
1.03208e-10
-2.49792e-10
1.27729e-10
-2.72367e-10
1.54471e-10
-2.93389e-10
1.83392e-10
-3.12813e-10
2.1445e-10
-3.3058e-10
2.47592e-10
-3.46611e-10
2.82735e-10
-3.60798e-10
3.19742e-10
-3.7299e-10
3.58383e-10
-3.82967e-10
3.98295e-10
-3.90385e-10
4.38932e-10
-3.94702e-10
4.79518e-10
-3.95049e-10
5.1905e-10
-3.90037e-10
5.56399e-10
-3.77496e-10
5.90654e-10
-3.5415e-10
6.21842e-10
-3.15372e-10
6.51994e-10
-2.553e-10
-1.67706e-10
6.8603e-10
1.82386e-12
-6.24829e-11
7.4186e-12
-9.46701e-11
1.63351e-11
-1.26456e-10
2.82827e-11
-1.57905e-10
4.30275e-11
-1.88323e-10
6.03782e-11
-2.17599e-10
8.01835e-11
-2.45525e-10
1.02325e-10
-2.71936e-10
1.26707e-10
-2.96751e-10
1.53251e-10
-3.19934e-10
1.81883e-10
-3.41447e-10
2.1253e-10
-3.61228e-10
2.45101e-10
-3.79183e-10
2.79474e-10
-3.95173e-10
3.15478e-10
-4.08994e-10
3.52863e-10
-4.20352e-10
3.91284e-10
-4.28806e-10
4.30281e-10
-4.33699e-10
4.69282e-10
-4.3405e-10
5.07666e-10
-4.28422e-10
5.44918e-10
-4.14749e-10
5.8096e-10
-3.90191e-10
6.16683e-10
-3.51095e-10
6.5464e-10
-2.93257e-10
-2.12639e-10
6.99573e-10
1.66991e-12
-6.41526e-11
7.07531e-12
-1.00075e-10
1.57923e-11
-1.35173e-10
2.75373e-11
-1.6965e-10
4.20777e-11
-2.02864e-10
5.92166e-11
-2.34739e-10
7.87936e-11
-2.65103e-10
1.00677e-10
-2.9382e-10
1.24754e-10
-3.2083e-10
1.50925e-10
-3.46108e-10
1.79098e-10
-3.69621e-10
2.09172e-10
-3.91304e-10
2.41036e-10
-4.11048e-10
2.7455e-10
-4.28687e-10
3.09535e-10
-4.4398e-10
3.4576e-10
-4.56578e-10
3.82938e-10
-4.65985e-10
4.20732e-10
-4.71492e-10
4.58788e-10
-4.72107e-10
4.96826e-10
-4.66459e-10
5.34796e-10
-4.52719e-10
5.73152e-10
-4.28548e-10
6.13228e-10
-3.91171e-10
6.57632e-10
-3.37661e-10
-2.65525e-10
7.10518e-10
1.50411e-12
-6.56564e-11
6.68629e-12
-1.05257e-10
1.51496e-11
-1.43636e-10
2.66201e-11
-1.81121e-10
4.08681e-11
-2.17113e-10
5.76949e-11
-2.51568e-10
7.69329e-11
-2.84343e-10
9.84403e-11
-3.1533e-10
1.22093e-10
-3.44485e-10
1.47778e-10
-3.71794e-10
1.75385e-10
-3.9723e-10
2.04804e-10
-4.20724e-10
2.35912e-10
-4.42158e-10
2.68571e-10
-4.61347e-10
3.02616e-10
-4.78025e-10
3.37858e-10
-4.91821e-10
3.74089e-10
-5.02216e-10
4.11103e-10
-5.08507e-10
4.48749e-10
-5.09753e-10
4.87014e-10
-5.04725e-10
5.26171e-10
-4.91876e-10
5.66981e-10
-4.69358e-10
6.10938e-10
-4.35129e-10
6.60492e-10
-3.87215e-10
-3.24156e-10
7.19122e-10
1.33597e-12
-6.6992e-11
6.26958e-12
-1.10191e-10
1.44391e-11
-1.51806e-10
2.55816e-11
-1.92264e-10
3.94726e-11
-2.31005e-10
5.5913e-11
-2.68009e-10
7.47324e-11
-3.03164e-10
9.57831e-11
-3.36382e-10
1.18933e-10
-3.67637e-10
1.44062e-10
-3.96924e-10
1.71052e-10
-4.24222e-10
1.99788e-10
-4.49462e-10
2.30152e-10
-4.72522e-10
2.62015e-10
-4.93211e-10
2.95244e-10
-5.11255e-10
3.29702e-10
-5.26279e-10
3.65265e-10
-5.3778e-10
4.01852e-10
-5.45094e-10
4.39474e-10
-5.47375e-10
4.78317e-10
-5.43568e-10
5.18857e-10
-5.32416e-10
5.62003e-10
-5.12504e-10
6.09252e-10
-4.82377e-10
6.62797e-10
-4.4076e-10
-3.86882e-10
7.25522e-10
1.16559e-12
-6.81572e-11
5.83846e-12
-1.14863e-10
1.36894e-11
-1.59657e-10
2.44681e-11
-2.03043e-10
3.79571e-11
-2.44495e-10
5.39608e-11
-2.84014e-10
7.23086e-11
-3.21514e-10
9.28509e-11
-3.56926e-10
1.15453e-10
-3.90241e-10
1.39992e-10
-4.21464e-10
1.66349e-10
-4.50581e-10
1.94413e-10
-4.77527e-10
2.24075e-10
-5.02184e-10
2.55228e-10
-5.24364e-10
2.87773e-10
-5.43801e-10
3.21631e-10
-5.60137e-10
3.56754e-10
-5.72903e-10
3.93165e-10
-5.81505e-10
4.31e-10
-5.85211e-10
4.70579e-10
-5.83147e-10
5.1249e-10
-5.74327e-10
5.57687e-10
-5.57701e-10
6.07583e-10
-5.32273e-10
6.64091e-10
-4.97268e-10
-4.52373e-10
7.29582e-10
9.94215e-13
-6.9151e-11
5.40504e-12
-1.19274e-10
1.2925e-11
-1.67177e-10
2.33188e-11
-2.13438e-10
3.63789e-11
-2.57556e-10
5.19149e-11
-2.99552e-10
6.97597e-11
-3.3936e-10
8.97654e-11
-3.76934e-10
1.11799e-10
-4.12276e-10
1.35738e-10
-4.45405e-10
1.6147e-10
-4.76314e-10
1.88891e-10
-5.0495e-10
2.17907e-10
-5.31201e-10
2.48436e-10
-5.54894e-10
2.80416e-10
-5.75782e-10
3.13817e-10
-5.93538e-10
3.48659e-10
-6.07745e-10
3.85044e-10
-6.1789e-10
4.23195e-10
-6.23362e-10
4.63513e-10
-6.23465e-10
5.06632e-10
-6.17446e-10
5.53489e-10
-6.04559e-10
6.05368e-10
-5.84153e-10
6.63912e-10
-5.55812e-10
-5.19523e-10
7.31061e-10
8.27083e-13
-6.99776e-11
4.97924e-12
-1.23426e-10
1.21659e-11
-1.74363e-10
2.21661e-11
-2.23438e-10
3.47839e-11
-2.70174e-10
4.98371e-11
-3.14606e-10
6.71639e-11
-3.56689e-10
8.66214e-11
-3.96393e-10
1.08081e-10
-4.33738e-10
1.31426e-10
-4.68752e-10
1.56551e-10
-5.01441e-10
1.83364e-10
-5.31764e-10
2.11788e-10
-5.59627e-10
2.41766e-10
-5.84873e-10
2.73269e-10
-6.07286e-10
3.06309e-10
-6.26578e-10
3.40958e-10
-6.42395e-10
3.77374e-10
-6.54307e-10
4.15835e-10
-6.61824e-10
4.56778e-10
-6.64408e-10
5.00842e-10
-6.6151e-10
5.48904e-10
-6.52621e-10
6.02107e-10
-6.37355e-10
6.61841e-10
-6.15547e-10
-5.87374e-10
7.29693e-10
6.68227e-13
-7.06452e-11
4.57073e-12
-1.27328e-10
1.14279e-11
-1.8122e-10
2.10347e-11
-2.33045e-10
3.32078e-11
-2.82348e-10
4.7774e-11
-3.29174e-10
6.45797e-11
-3.73496e-10
8.34884e-11
-4.15304e-10
1.04378e-10
-4.5463e-10
1.27141e-10
-4.91516e-10
1.51681e-10
-5.25982e-10
1.77918e-10
-5.58003e-10
2.05793e-10
-5.87502e-10
2.35269e-10
-6.14351e-10
2.66347e-10
-6.38364e-10
2.99071e-10
-6.59303e-10
3.3355e-10
-6.76874e-10
3.69977e-10
-6.90734e-10
4.08656e-10
-7.00503e-10
4.5003e-10
-7.05782e-10
4.9471e-10
-7.0619e-10
5.43497e-10
-7.01408e-10
5.97383e-10
-6.91242e-10
6.57538e-10
-6.75702e-10
-6.55086e-10
7.2525e-10
5.25857e-13
-7.11704e-11
4.18621e-12
-1.30987e-10
1.07223e-11
-1.87756e-10
1.99426e-11
-2.42266e-10
3.16756e-11
-2.94082e-10
4.57589e-11
-3.43258e-10
6.20472e-11
-3.89786e-10
8.04128e-11
-4.33671e-10
1.00742e-10
-4.74961e-10
1.22935e-10
-5.13711e-10
1.46907e-10
-5.49956e-10
1.72591e-10
-5.83688e-10
1.9994e-10
-6.14853e-10
2.2894e-10
-6.43351e-10
2.5961e-10
-6.69034e-10
2.92017e-10
-6.91711e-10
3.26293e-10
-7.1115e-10
3.62648e-10
-7.27089e-10
4.0139e-10
-7.39245e-10
4.42948e-10
-7.4734e-10
4.87885e-10
-7.51128e-10
5.36911e-10
-7.50434e-10
5.90878e-10
-7.45209e-10
6.50755e-10
-7.3558e-10
-7.21916e-10
7.17584e-10
3.96334e-13
-7.15661e-11
3.82867e-12
-1.34419e-10
1.00562e-11
-1.93983e-10
1.89009e-11
-2.51111e-10
3.02037e-11
-3.05386e-10
4.3812e-11
-3.56868e-10
5.95909e-11
-4.05566e-10
7.74215e-11
-4.51504e-10
9.7199e-11
-4.9474e-10
1.18833e-10
-5.35347e-10
1.42247e-10
-5.73372e-10
1.67387e-10
-6.08828e-10
1.94218e-10
-6.41686e-10
2.22739e-10
-6.71873e-10
2.52984e-10
-6.9928e-10
2.85035e-10
-7.23762e-10
3.19032e-10
-7.45147e-10
3.55186e-10
-7.63244e-10
3.93797e-10
-7.77856e-10
4.35261e-10
-7.88805e-10
4.80084e-10
-7.9595e-10
5.2888e-10
-7.99231e-10
5.82368e-10
-7.98697e-10
6.41342e-10
-7.94555e-10
-7.8721e-10
7.06636e-10
2.80292e-13
-7.18456e-11
3.49924e-12
-1.37637e-10
9.43292e-12
-1.99917e-10
1.79158e-11
-2.59594e-10
2.87999e-11
-3.16271e-10
4.19442e-11
-3.70013e-10
5.72228e-11
-4.20847e-10
7.45262e-11
-4.68809e-10
9.37585e-11
-5.13974e-10
1.14837e-10
-5.56427e-10
1.37696e-10
-5.96233e-10
1.62289e-10
-6.33422e-10
1.88591e-10
-6.67989e-10
2.16609e-10
-6.99892e-10
2.46387e-10
-7.29058e-10
2.78009e-10
-7.55385e-10
3.11618e-10
-7.78756e-10
3.47415e-10
-7.99041e-10
3.85676e-10
-8.16118e-10
4.26759e-10
-8.29887e-10
4.71101e-10
-8.40294e-10
5.19228e-10
-8.47357e-10
5.7173e-10
-8.51199e-10
6.29249e-10
-8.52075e-10
-8.50402e-10
6.92441e-10
1.77083e-13
-7.20219e-11
3.19824e-12
-1.40658e-10
8.85334e-12
-2.05572e-10
1.69884e-11
-2.67729e-10
2.7467e-11
-3.2675e-10
4.01578e-11
-3.82705e-10
5.49448e-11
-4.35635e-10
7.17272e-11
-4.85593e-10
9.0417e-11
-5.32666e-10
1.1094e-10
-5.76952e-10
1.33237e-10
-6.18531e-10
1.57267e-10
-6.57453e-10
1.83013e-10
-6.93737e-10
2.10487e-10
-7.27367e-10
2.39733e-10
-7.58304e-10
2.70835e-10
-7.86488e-10
3.03927e-10
-8.11847e-10
3.39192e-10
-8.34307e-10
3.76878e-10
-8.53804e-10
4.17294e-10
-8.70303e-10
4.60812e-10
-8.83812e-10
5.07866e-10
-8.94411e-10
5.58934e-10
-9.02267e-10
6.14521e-10
-9.07662e-10
-9.11012e-10
6.7513e-10
8.69712e-14
-7.2108e-11
2.92455e-12
-1.43495e-10
8.31591e-12
-2.10962e-10
1.61174e-11
-2.75531e-10
2.62024e-11
-3.36836e-10
3.84498e-11
-3.94954e-10
5.27522e-11
-4.49939e-10
6.90169e-11
-5.0186e-10
8.71633e-11
-5.50814e-10
1.07123e-10
-5.96913e-10
1.28843e-10
-6.40252e-10
1.52286e-10
-6.80898e-10
1.77439e-10
-7.18891e-10
2.04313e-10
-7.54242e-10
2.3295e-10
-7.86942e-10
2.63427e-10
-8.16966e-10
2.95863e-10
-8.44283e-10
3.3042e-10
-8.68864e-10
3.67308e-10
-8.90693e-10
4.06788e-10
-9.09783e-10
4.49167e-10
-9.26191e-10
4.94792e-10
-9.40036e-10
5.44038e-10
-9.51513e-10
5.97292e-10
-9.60916e-10
-9.68643e-10
6.54923e-10
8.655e-15
-7.21157e-11
2.67661e-12
-1.46162e-10
7.81786e-12
-2.16103e-10
1.52984e-11
-2.83011e-10
2.50012e-11
-3.46539e-10
3.68134e-11
-4.06767e-10
5.06361e-11
-4.63764e-10
6.63837e-11
-5.17609e-10
8.39814e-11
-5.68414e-10
1.03366e-10
-6.163e-10
1.24488e-10
-6.61375e-10
1.47312e-10
-7.03724e-10
1.71826e-10
-7.43405e-10
1.98037e-10
-7.80453e-10
2.2598e-10
-8.14886e-10
2.55723e-10
-8.46709e-10
2.87364e-10
-8.75925e-10
3.21039e-10
-9.0254e-10
3.56922e-10
-9.26576e-10
3.95223e-10
-9.48083e-10
4.36184e-10
-9.67152e-10
4.80075e-10
-9.83926e-10
5.27177e-10
-9.98616e-10
5.77772e-10
-1.01151e-09
-1.02299e-09
6.32114e-10
-5.8327e-14
-7.20564e-11
2.45204e-12
-1.48671e-10
7.35564e-12
-2.21006e-10
1.45266e-11
-2.90182e-10
2.3856e-11
-3.55869e-10
3.52397e-11
-4.18152e-10
4.85855e-11
-4.77111e-10
6.38136e-11
-5.32839e-10
8.08546e-11
-5.85457e-10
9.96485e-11
-6.35096e-10
1.20147e-10
-6.81875e-10
1.42317e-10
-7.25895e-10
1.66141e-10
-7.6723e-10
1.91622e-10
-8.05935e-10
2.18787e-10
-8.42051e-10
2.47687e-10
-8.75609e-10
2.78401e-10
-9.06638e-10
3.11035e-10
-9.35174e-10
3.45725e-10
-9.61266e-10
3.82633e-10
-9.84991e-10
4.21941e-10
-1.00646e-09
4.63846e-10
-1.02583e-09
5.08548e-10
-1.04332e-09
5.56234e-10
-1.0592e-09
-1.07381e-09
6.0706e-10
-1.15373e-13
-7.194e-11
2.24849e-12
-1.51034e-10
6.92496e-12
-2.25682e-10
1.37957e-11
-2.97053e-10
2.27598e-11
-3.64834e-10
3.37194e-11
-4.29113e-10
4.65889e-11
-4.89982e-10
6.12935e-11
-5.47545e-10
7.77671e-11
-6.01932e-10
9.59522e-11
-6.53282e-10
1.15801e-10
-7.01726e-10
1.37278e-10
-7.47373e-10
1.60362e-10
-7.90315e-10
1.85048e-10
-8.30623e-10
2.11352e-10
-8.68356e-10
2.39308e-10
-9.03566e-10
2.68973e-10
-9.36304e-10
3.00425e-10
-9.66626e-10
3.33762e-10
-9.94603e-10
3.69098e-10
-1.02033e-09
4.06562e-10
-1.04392e-09
4.46286e-10
-1.06556e-09
4.88394e-10
-1.08543e-09
5.32995e-10
-1.1038e-09
-1.12098e-09
5.8016e-10
-1.63116e-13
-7.17758e-11
2.06324e-12
-1.53259e-10
6.52163e-12
-2.3014e-10
1.31004e-11
-3.03632e-10
2.17046e-11
-3.73439e-10
3.22435e-11
-4.39653e-10
4.46359e-11
-5.02376e-10
5.88112e-11
-5.61722e-10
7.47059e-11
-6.17829e-10
9.22633e-11
-6.70842e-10
1.11435e-10
-7.20899e-10
1.32181e-10
-7.68121e-10
1.54477e-10
-8.12611e-10
1.78307e-10
-8.54454e-10
2.03675e-10
-8.93724e-10
2.30597e-10
-9.30489e-10
2.59109e-10
-9.64815e-10
2.89258e-10
-9.96775e-10
3.21109e-10
-1.02645e-09
3.54732e-10
-1.05395e-09
3.90206e-10
-1.0794e-09
4.27605e-10
-1.10295e-09
4.66991e-10
-1.12481e-09
5.08401e-10
-1.14521e-09
-1.16441e-09
5.51835e-10
-2.03103e-13
-7.15715e-11
1.89407e-12
-1.55355e-10
6.14196e-12
-2.34387e-10
1.24349e-11
-3.09924e-10
2.06844e-11
-3.81689e-10
3.08041e-11
-4.49774e-10
4.27178e-11
-5.14291e-10
5.63576e-11
-5.75364e-10
7.16616e-11
-6.33135e-10
8.85731e-11
-6.87755e-10
1.07041e-10
-7.39368e-10
1.27023e-10
-7.88105e-10
1.48486e-10
-8.34074e-10
1.71406e-10
-8.77375e-10
1.95772e-10
-9.18091e-10
2.21584e-10
-9.56302e-10
2.48855e-10
-9.92086e-10
2.77607e-10
-1.02553e-09
3.07868e-10
-1.05671e-09
3.39674e-10
-1.08576e-09
3.73056e-10
-1.11278e-09
4.08038e-10
-1.13794e-09
4.44629e-10
-1.1614e-09
4.82807e-10
-1.18339e-09
-1.20412e-09
5.22512e-10
-2.35864e-13
-7.13344e-11
1.73862e-12
-1.57329e-10
5.78235e-12
-2.3843e-10
1.17952e-11
-3.15937e-10
1.96931e-11
-3.89587e-10
2.93952e-11
-4.59477e-10
4.08282e-11
-5.25726e-10
5.39266e-11
-5.88464e-10
6.86291e-11
-6.47839e-10
8.4878e-11
-7.04005e-10
1.0262e-10
-7.57112e-10
1.21808e-10
-8.07293e-10
1.424e-10
-8.54667e-10
1.64363e-10
-8.99339e-10
1.87674e-10
-9.41402e-10
2.12315e-10
-9.80943e-10
2.38278e-10
-1.01805e-09
2.65559e-10
-1.05281e-09
2.94159e-10
-1.08531e-09
3.24077e-10
-1.11567e-09
3.55306e-10
-1.14401e-09
3.87828e-10
-1.17046e-09
4.21604e-10
-1.19518e-09
4.56565e-10
-1.21835e-09
-1.24016e-09
4.92603e-10
-2.6269e-13
-7.10705e-11
1.59515e-12
-1.59185e-10
5.44015e-12
-2.42274e-10
1.11772e-11
-3.21674e-10
1.87272e-11
-3.97138e-10
2.80126e-11
-4.68763e-10
3.89634e-11
-5.36678e-10
5.15154e-11
-6.01018e-10
6.56074e-11
-6.61933e-10
8.11802e-11
-7.1958e-10
9.81772e-11
-7.74111e-10
1.16546e-10
-8.25663e-10
1.36237e-10
-8.7436e-10
1.57208e-10
-9.20311e-10
1.79422e-10
-9.63616e-10
2.02847e-10
-1.00437e-09
2.27454e-10
-1.04266e-09
2.53217e-10
-1.07857e-09
2.8011e-10
-1.11221e-09
3.08103e-10
-1.14367e-09
3.37156e-10
-1.17306e-09
3.67215e-10
-1.20052e-09
3.98202e-10
-1.22617e-09
4.30012e-10
-1.25016e-09