/*--------------------------------*- C++ -*----------------------------------*\
  =========                 |
  \\      /  F ield         | OpenFOAM: The Open Source CFD Toolbox
   \\    /   O peration     | Website:  https://openfoam.org
    \\  /    A nd           | Version:  13
     \\/     M anipulation  |
\*---------------------------------------------------------------------------*/
FoamFile
{
    format      ascii;
    class       volVectorField;
    location    "10";
    object      U;
}
// * * * * * * * * * * * * * * * * * * * * * * * * * * * * * * * * * * * * * //

dimensions      [0 1 -1 0 0 0 0];

internalField   nonuniform List<vector> 
6440
(
(-0.0201644 0.0352429 0)
(-0.125761 0.0495044 0)
(-0.241125 0.0516378 -5.65227e-16)
(-0.304635 0.03671 5.24728e-16)
(-0.255021 0.0121105 0)
(-0.160448 -0.0177923 -1.19244e-15)
(-0.0528403 -0.0482345 1.61388e-15)
(0.0478521 -0.0478179 0)
(0.125767 -0.0232489 0)
(0.175348 0.00816796 0)
(0.182031 0.0483983 1.89383e-15)
(0.149663 0.0853383 -3.8136e-15)
(0.0801813 0.0892562 2.19577e-15)
(-0.00163411 0.0715048 0)
(-0.0691225 0.026135 -8.31473e-15)
(-0.0961253 -0.00490408 8.48626e-15)
(-0.10929 -0.00573875 0)
(-0.118038 0.00591699 0)
(-0.131046 0.0181992 0)
(-0.146832 0.0199815 0)
(-0.14578 0.00711254 -5.65109e-15)
(-0.114707 -0.00899865 1.19791e-14)
(-0.0656438 -0.0155567 -7.3901e-15)
(-0.0174867 -0.0118274 -1.01372e-14)
(0.00543164 0.00164534 1.12093e-14)
(-0.0107226 0.118555 0)
(-0.10423 0.14836 0)
(-0.151239 0.11679 -8.96085e-16)
(-0.0735867 0.0492441 9.82124e-16)
(0.0889978 -0.0831783 0)
(0.258294 -0.196165 -5.93658e-16)
(0.410763 -0.247791 9.05109e-16)
(0.525183 -0.231981 -4.03999e-16)
(0.5967 -0.168989 0)
(0.626587 -0.083119 0)
(0.618004 0.00703009 0)
(0.575936 0.0925747 -8.61076e-16)
(0.501475 0.164064 8.95787e-16)
(0.390972 0.208913 1.0003e-15)
(0.251848 0.211795 -1.24234e-15)
(0.0923791 0.158387 0)
(-0.0632284 0.0649988 0)
(-0.140257 0.0468916 0)
(-0.181751 0.0480822 0)
(-0.214232 0.0122534 0)
(-0.219709 -0.047292 -4.37692e-15)
(-0.198063 -0.0958653 4.26455e-15)
(-0.151564 -0.110755 0)
(-0.0865487 -0.0848921 -6.70682e-15)
(-0.0168625 -0.0226559 1.96594e-14)
(0.00268913 0.153501 0)
(-0.0203507 0.152653 0)
(0.0745306 0.0649951 0)
(0.281733 -0.153042 0)
(0.500387 -0.350895 0)
(0.676855 -0.443331 0)
(0.798927 -0.427641 2.685e-16)
(0.871172 -0.337435 -2.7078e-16)
(0.899352 -0.208465 0)
(0.891117 -0.0676072 0)
(0.852999 0.0675004 0)
(0.789697 0.186902 0)
(0.707591 0.285703 0)
(0.607987 0.359039 7.18346e-16)
(0.486482 0.398878 -2.4035e-15)
(0.33261 0.387831 1.94338e-15)
(0.133959 0.30042 0)
(-0.0717965 0.172106 0)
(-0.178781 0.0963349 0)
(-0.22444 0.00867045 0)
(-0.233982 -0.0984841 0)
(-0.229633 -0.175495 0)
(-0.201288 -0.199474 3.9205e-15)
(-0.150988 -0.172564 -4.95995e-15)
(-0.0530059 -0.0717255 7.68432e-15)
(0.00533062 0.148445 0)
(0.077988 0.0600889 0)
(0.332841 -0.260239 -2.35482e-16)
(0.605998 -0.529617 1.44686e-16)
(0.817712 -0.652702 0)
(0.952748 -0.636674 -2.13914e-16)
(1.02728 -0.524496 2.16849e-16)
(1.05127 -0.359534 0)
(1.03749 -0.174438 5.29352e-16)
(1.00406 0.00869764 -5.95165e-16)
(0.942043 0.175005 5.8495e-16)
(0.859482 0.316805 -1.17052e-15)
(0.764605 0.430274 6.02413e-16)
(0.663858 0.514091 0)
(0.557662 0.566225 0)
(0.436645 0.577808 0)
(0.277997 0.522413 1.90586e-15)
(0.0595325 0.373138 1.51595e-19)
(-0.129371 0.17699 -3.76988e-15)
(-0.202126 -0.0104616 0)
(-0.213122 -0.175359 0)
(-0.19274 -0.259458 3.63585e-15)
(-0.183429 -0.271778 -3.77145e-15)
(-0.165257 -0.237795 -4.52286e-15)
(-0.0774148 -0.119585 1.3295e-14)
(0.022876 0.105979 0)
(0.269598 -0.309926 0)
(0.579022 -0.69597 -1.34343e-16)
(0.823692 -0.87033 1.0361e-16)
(0.977855 -0.862836 0)
(1.05852 -0.736078 -1.89884e-16)
(1.09638 -0.541387 2.04108e-16)
(1.08576 -0.315656 0)
(1.05782 -0.0846248 5.51759e-16)
(0.999139 0.132576 -5.70964e-16)
(0.916821 0.320883 5.5685e-16)
(0.819263 0.472373 -1.12354e-15)
(0.715734 0.586035 5.83109e-16)
(0.614241 0.6644 0)
(0.518051 0.709934 1.33829e-15)
(0.422745 0.720615 -1.47302e-15)
(0.310065 0.677959 1.68888e-15)
(0.147474 0.543196 3.26728e-19)
(-0.04907 0.294116 -3.01056e-15)
(-0.161606 -0.016244 0)
(-0.166663 -0.258306 5.33347e-15)
(-0.125134 -0.331895 5.4987e-19)
(-0.123081 -0.326362 -4.00623e-15)
(-0.120004 -0.271041 -4.70341e-15)
(-0.0782826 -0.136755 6.67293e-15)
(0.112186 -0.169945 0)
(0.425877 -0.781508 0)
(0.697154 -1.07256 -1.01588e-16)
(0.873326 -1.10182 8.97927e-17)
(0.969255 -0.977794 0)
(1.01999 -0.768323 -1.87816e-16)
(1.02885 -0.512262 2.11021e-16)
(1.01258 -0.236733 0)
(0.967533 0.0373357 6.01707e-16)
(0.894253 0.287139 -5.71777e-16)
(0.796421 0.49341 5.60482e-16)
(0.687945 0.645529 -1.14263e-15)
(0.5817 0.74625 6.01073e-16)
(0.485472 0.804653 0)
(0.401937 0.828918 -1.41088e-15)
(0.328928 0.821762 1.54925e-15)
(0.254073 0.770885 1.73329e-15)
(0.14842 0.638375 5.34746e-19)
(0.00165107 0.381931 -2.75838e-15)
(-0.113228 -0.00859071 0)
(-0.0994878 -0.305555 -6.30817e-15)
(-0.0463378 -0.38354 7.80813e-15)
(-0.0421318 -0.358379 -3.55637e-15)
(-0.0513438 -0.274472 -4.11284e-15)
(-0.053034 -0.110351 6.76359e-15)
(0.176722 -0.663653 0)
(0.459157 -1.20357 0)
(0.658588 -1.32095 -9.10908e-17)
(0.772788 -1.22808 8.75183e-17)
(0.829431 -1.0261 0)
(0.850619 -0.758665 -2.02033e-16)
(0.845248 -0.451454 2.4005e-16)
(0.816737 -0.129122 0)
(0.76753 0.186598 6.72131e-16)
(0.690162 0.464499 -6.15681e-16)
(0.584015 0.679663 6.03704e-16)
(0.471334 0.821724 -1.24309e-15)
(0.371832 0.898264 6.65147e-16)
(0.290442 0.92562 0)
(0.226663 0.917444 0)
(0.178727 0.880188 0)
(0.137695 0.805369 1.76764e-15)
(0.0815516 0.658752 6.84021e-19)
(-0.00312468 0.39581 -2.61299e-15)
(-0.0737476 -0.0211427 0)
(-0.0154634 -0.328752 0)
(0.0218544 -0.431247 2.87451e-15)
(0.0337413 -0.37305 -2.89528e-15)
(0.0163185 -0.246635 -3.80879e-15)
(-0.0180555 -0.0494144 7.93775e-15)
(0.168469 -1.0839 0)
(0.380393 -1.44816 0)
(0.512928 -1.44597 -9.03636e-17)
(0.57672 -1.27603 9.23429e-17)
(0.594857 -1.01734 0)
(0.580533 -0.698259 -2.40971e-16)
(0.5457 -0.342661 3.19028e-16)
(0.494681 0.0139342 0)
(0.452806 0.360344 8.48468e-16)
(0.382883 0.65441 -7.45979e-16)
(0.280421 0.863376 7.23153e-16)
(0.176837 0.97985 -1.48227e-15)
(0.102722 1.01827 7.13421e-16)
(0.0499636 1.00615 0)
(0.0127162 0.960441 0)
(-0.00804561 0.887947 0)
(-0.0170821 0.77993 1.4585e-15)
(-0.0289585 0.603375 6.82841e-19)
(-0.0525355 0.310005 -2.59718e-15)
(-0.041468 -0.149179 0)
(0.0155191 -0.417514 0)
(0.0512171 -0.452259 2.37862e-15)
(0.0698944 -0.346907 -2.71116e-15)
(0.0556895 -0.166969 -4.43787e-15)
(0.00487125 0.0346158 1.50251e-14)
(0.124119 -1.35816 0)
(0.253694 -1.5823 0)
(0.318496 -1.48247 0)
(0.324861 -1.24551 0)
(0.289681 -0.933859 2.53473e-16)
(0.221665 -0.561921 -3.4979e-16)
(0.149407 -0.162618 6.28075e-16)
(0.0529955 0.236833 -1.32669e-15)
(0.0606502 0.567744 1.36149e-15)
(0.00332198 0.824055 1.62357e-18)
(-0.0823432 0.999027 1.42648e-18)
(-0.152336 1.08014 -5.38197e-16)
(-0.190802 1.08235 -5.03194e-16)
(-0.212202 1.03115 9.99908e-16)
(-0.221214 0.947915 -1.55883e-15)
(-0.214048 0.838724 1.12336e-15)
(-0.191538 0.690993 0)
(-0.160837 0.466097 1.68049e-15)
(-0.114663 0.0992883 -3.30551e-15)
(-0.0635785 -0.3686 5.06262e-15)
(-0.0291064 -0.482254 -7.04402e-19)
(0.0018884 -0.42573 -5.63988e-19)
(0.0502668 -0.270023 -3.19637e-15)
(0.0650211 -0.0468132 0)
(0.013756 0.112245 -6.55407e-15)
(0.0745673 -1.5062 0)
(0.115685 -1.61181 0)
(0.107986 -1.43366 0)
(0.0554404 -1.14832 0)
(-0.03013 -0.80206 -3.70856e-16)
(-0.132572 -0.403844 5.758e-16)
(-0.195323 -0.000129863 -9.44032e-16)
(-0.240307 0.367289 6.62752e-16)
(-0.306315 0.677207 0)
(-0.382368 0.917277 -5.23207e-16)
(-0.442164 1.06592 -1.00866e-18)
(-0.470969 1.11095 4.05873e-16)
(-0.473406 1.08464 0)
(-0.469695 0.997523 -4.14994e-16)
(-0.454976 0.882439 1.33826e-15)
(-0.422144 0.734059 -1.00371e-15)
(-0.365632 0.522958 1.23839e-15)
(-0.288846 0.187477 -1.91749e-15)
(-0.223028 -0.259101 0)
(-0.243925 -0.425541 -4.08818e-15)
(-0.230323 -0.444289 6.52421e-15)
(-0.153958 -0.366369 -6.94919e-15)
(-0.0183582 -0.158299 5.13234e-15)
(0.0848444 0.098142 0)
(0.0285606 0.151347 -6.56535e-15)
(0.0229869 -1.55132 0)
(-0.0185518 -1.59586 0)
(-0.0933441 -1.33019 0)
(-0.190324 -1.02077 0)
(-0.303993 -0.669011 3.3909e-16)
(-0.411004 -0.291005 -4.34236e-16)
(-0.495402 0.0869427 5.48822e-16)
(-0.57246 0.432061 -3.45204e-16)
(-0.652463 0.724919 4.85729e-16)
(-0.713172 0.955646 7.23305e-19)
(-0.739117 1.06694 -3.51677e-16)
(-0.737121 1.08839 0)
(-0.720229 1.04398 -3.44736e-16)
(-0.703469 0.925165 7.33391e-16)
(-0.671152 0.771807 -1.21685e-15)
(-0.614526 0.555302 9.58005e-16)
(-0.540475 0.241711 0)
(-0.492776 -0.119253 2.14723e-15)
(-0.511583 -0.292442 -2.50864e-15)
(-0.507008 -0.373703 2.08527e-15)
(-0.453966 -0.435625 -7.47888e-19)
(-0.345724 -0.392377 -2.15775e-15)
(-0.145965 -0.190353 0)
(0.065361 0.0858357 0)
(0.0391179 0.143661 0)
(-0.0254683 -1.52286 0)
(-0.140565 -1.45656 0)
(-0.264445 -1.19482 1.16491e-16)
(-0.399929 -0.870265 -1.30116e-16)
(-0.542437 -0.519131 0)
(-0.676401 -0.158217 3.59134e-16)
(-0.778056 0.192544 -6.9587e-16)
(-0.859429 0.514781 2.39786e-16)
(-0.925886 0.795152 0)
(-0.959871 0.992686 0)
(-0.964345 1.06343 0)
(-0.951069 1.06569 3.03442e-16)
(-0.931435 0.985795 -3.11821e-16)
(-0.906733 0.825569 -3.39856e-16)
(-0.859065 0.616688 -3.88234e-16)
(-0.797135 0.341389 9.53254e-16)
(-0.763447 0.06012 1.2759e-15)
(-0.781616 -0.120083 -1.70705e-15)
(-0.79184 -0.265324 0)
(-0.772475 -0.424938 0)
(-0.719234 -0.528621 1.30655e-15)
(-0.596378 -0.523668 -1.41127e-15)
(-0.367293 -0.351482 0)
(-0.0607501 -0.0326973 4.31239e-15)
(0.0390061 0.104053 -1.53977e-14)
(-0.0632849 -1.43987 0)
(-0.240881 -1.3084 0)
(-0.397926 -1.02709 -1.16587e-16)
(-0.562245 -0.694657 1.27586e-16)
(-0.720068 -0.348584 2.87765e-16)
(-0.862346 -0.00590787 -6.58787e-16)
(-0.974349 0.322202 5.05474e-16)
(-1.05945 0.626621 -1.92583e-16)
(-1.11449 0.877358 0)
(-1.13661 1.02074 2.89248e-16)
(-1.1374 1.05494 -2.79006e-16)
(-1.12593 1.0335 -2.80032e-16)
(-1.10528 0.905486 -3.79125e-19)
(-1.06878 0.701805 6.54979e-16)
(-1.01437 0.462522 -1.14961e-15)
(-0.979051 0.226239 9.33797e-16)
(-0.991667 0.045495 0)
(-1.01029 -0.124098 0)
(-1.00496 -0.320957 0)
(-0.988218 -0.496911 1.04665e-15)
(-0.939018 -0.630249 -1.00694e-15)
(-0.827841 -0.686433 0)
(-0.619814 -0.57907 0)
(-0.286816 -0.232922 -2.19126e-15)
(0.0243117 0.0963145 6.37556e-19)
(-0.0841902 -1.30291 0)
(-0.306589 -1.11381 0)
(-0.491004 -0.829775 1.22551e-16)
(-0.675652 -0.50085 -1.31752e-16)
(-0.843842 -0.167665 -2.92269e-16)
(-0.98766 0.151284 5.62969e-16)
(-1.10395 0.454887 -4.12851e-16)
(-1.18931 0.729475 1.66472e-16)
(-1.24087 0.933439 0)
(-1.26295 1.02806 -2.6781e-16)
(-1.26669 1.0434 2.62027e-16)
(-1.2549 0.976758 2.66972e-16)
(-1.22309 0.804485 -2.8741e-16)
(-1.17261 0.582539 -3.28055e-16)
(-1.12908 0.374471 -3.84543e-16)
(-1.12517 0.204227 8.92949e-16)
(-1.13875 0.0324315 1.02839e-15)
(-1.1312 -0.169765 -1.07646e-15)
(-1.11648 -0.368279 0)
(-1.09856 -0.552278 -9.0431e-16)
(-1.05523 -0.719048 1.72428e-15)
(-0.97072 -0.835621 -8.6204e-16)
(-0.821496 -0.820717 0)
(-0.55288 -0.531803 1.36045e-15)
(-0.0968821 0.0227489 -3.69591e-15)
(-0.0829791 -1.07916 7.29423e-17)
(-0.333825 -0.879195 6.78608e-17)
(-0.544178 -0.602877 -1.35393e-16)
(-0.747265 -0.291599 2.84289e-16)
(-0.924625 0.0180544 -3.18174e-19)
(-1.07143 0.310066 -2.29022e-16)
(-1.18875 0.585296 1.78757e-16)
(-1.27231 0.819929 1.49993e-16)
(-1.32185 0.978096 -2.68e-16)
(-1.34334 1.02935 2.54509e-16)
(-1.3445 1.01663 -2.52632e-16)
(-1.32491 0.899698 0)
(-1.27067 0.701445 -2.92686e-16)
(-1.2207 0.501819 6.74416e-16)
(-1.20068 0.345078 -3.84375e-16)
(-1.19916 0.187293 8.62949e-16)
(-1.18436 -0.0110788 -9.99612e-16)
(-1.14836 -0.216389 0)
(-1.12347 -0.411453 0)
(-1.09878 -0.606182 8.3777e-16)
(-1.06096 -0.794909 7.01457e-19)
(-1.00255 -0.958804 -7.77298e-16)
(-0.914722 -1.03472 0)
(-0.768637 -0.866639 0)
(-0.312013 -0.279875 -2.11753e-15)
(-0.0686102 -0.747718 0)
(-0.336656 -0.596976 0)
(-0.571404 -0.344742 0)
(-0.788744 -0.0671845 0)
(-0.970781 0.206985 0)
(-1.12201 0.471148 0)
(-1.23847 0.713073 0)
(-1.3193 0.906674 0)
(-1.36474 1.01258 2.55028e-16)
(-1.37871 1.02966 -2.47604e-16)
(-1.36476 0.974604 0)
(-1.31811 0.810558 0)
(-1.26465 0.616459 0)
(-1.23208 0.461604 0)
(-1.21572 0.323221 0)
(-1.1794 0.139607 0)
(-1.11833 -0.0709871 -1.01063e-15)
(-1.06422 -0.269203 1.88503e-15)
(-1.02671 -0.467719 -1.74435e-15)
(-0.994592 -0.668887 8.16317e-16)
(-0.97424 -0.871957 7.73845e-16)
(-0.950413 -1.07217 -7.4523e-16)
(-0.9195 -1.22116 -7.50775e-16)
(-0.883879 -1.16507 8.64256e-16)
(-0.524221 -0.644185 -1.47303e-15)
(-0.0627258 -0.433463 0)
(-0.343542 -0.283107 0)
(-0.593543 -0.0679189 1.91347e-16)
(-0.817065 0.162943 -1.52771e-16)
(-1.0017 0.399322 0)
(-1.14821 0.628419 1.74893e-16)
(-1.25651 0.83163 -2.96693e-16)
(-1.32424 0.98021 1.3259e-16)
(-1.34586 1.03137 2.50237e-16)
(-1.34895 1.02065 -2.48997e-16)
(-1.31714 0.903185 -2.60585e-16)
(-1.26152 0.720185 5.7776e-16)
(-1.2192 0.559988 -3.26839e-16)
(-1.1887 0.432971 -3.62868e-16)
(-1.13747 0.272262 -4.06687e-16)
(-1.04162 0.061067 9.72663e-16)
(-0.942376 -0.146042 0)
(-0.869638 -0.342459 9.64849e-16)
(-0.816817 -0.541107 -8.98512e-16)
(-0.792825 -0.742356 0)
(-0.80561 -0.953188 7.87161e-16)
(-0.841413 -1.17854 -1.49381e-15)
(-0.881626 -1.38757 7.28453e-16)
(-0.923908 -1.42301 7.87834e-16)
(-0.696049 -0.980916 -2.34249e-15)
(-0.0800788 -0.118345 2.16546e-16)
(-0.367587 0.0263013 1.2734e-16)
(-0.622162 0.196977 -1.80139e-16)
(-0.840286 0.384316 2.49265e-16)
(-1.01495 0.579484 -3.87826e-16)
(-1.14704 0.767496 1.61795e-16)
(-1.23655 0.927271 0)
(-1.28389 1.02205 2.61113e-16)
(-1.29392 1.03337 -2.54087e-16)
(-1.2686 0.969932 -2.59412e-16)
(-1.21607 0.81522 2.80286e-16)
(-1.16741 0.649505 0)
(-1.12988 0.519959 3.51021e-16)
(-1.0647 0.377558 -3.94443e-16)
(-0.941218 0.173926 9.44559e-16)
(-0.790893 -0.0505824 6.19877e-19)
(-0.677863 -0.247848 -2.2789e-15)
(-0.590622 -0.43581 1.0782e-15)
(-0.528748 -0.620447 -1.00686e-15)
(-0.515921 -0.80781 -5.92326e-19)
(-0.568688 -1.00991 1.70664e-15)
(-0.684365 -1.2462 -7.80498e-16)
(-0.820765 -1.49727 0)
(-0.935931 -1.60921 0)
(-0.820242 -1.25695 0)
(-0.104509 0.163521 0)
(-0.393695 0.31103 0)
(-0.634813 0.441096 0)
(-0.837333 0.58599 0)
(-0.991813 0.738538 0)
(-1.10086 0.883423 0)
(-1.16495 0.996842 -1.41195e-16)
(-1.18541 1.03429 1.34284e-16)
(-1.1693 1.00895 2.68164e-16)
(-1.12653 0.900132 -2.81964e-16)
(-1.07644 0.743999 -3.09651e-16)
(-1.03586 0.600349 3.46655e-16)
(-0.973294 0.456277 0)
(-0.839985 0.253349 -4.77514e-16)
(-0.657903 0.00171028 6.40842e-16)
(-0.521145 -0.215296 0)
(-0.420705 -0.390968 0)
(-0.328192 -0.552042 1.3418e-15)
(-0.256467 -0.701114 -2.50287e-15)
(-0.228949 -0.847262 1.134e-15)
(-0.302721 -1.01103 9.94747e-16)
(-0.498807 -1.22897 -1.72883e-15)
(-0.74044 -1.49815 7.69179e-16)
(-0.928988 -1.67251 0)
(-0.916235 -1.41241 -9.31218e-16)
(-0.118934 0.417723 0)
(-0.393018 0.560313 0)
(-0.609521 0.646875 1.22283e-16)
(-0.785721 0.750411 -1.01418e-16)
(-0.912856 0.859714 0)
(-0.993679 0.959013 1.57705e-16)
(-1.02889 1.0208 -2.94958e-16)
(-1.02439 1.01844 1.44166e-16)
(-0.991891 0.952302 2.94423e-16)
(-0.948663 0.822924 -3.1528e-16)
(-0.910287 0.672879 0)
(-0.862187 0.515566 3.95216e-16)
(-0.748609 0.301661 -4.83915e-16)
(-0.564354 0.00988395 -7.09996e-16)
(-0.428701 -0.248367 -8.57873e-16)
(-0.352522 -0.417785 1.71006e-15)
(-0.270569 -0.568225 0)
(-0.189665 -0.698961 1.70162e-15)
(-0.107109 -0.802374 -1.54137e-15)
(-0.0414833 -0.887886 0)
(-0.0784859 -0.972383 0)
(-0.307629 -1.12113 0)
(-0.648007 -1.36298 0)
(-0.95557 -1.51329 7.3742e-16)
(-1.01816 -1.34532 -1.66845e-15)
(-0.118111 0.701015 0)
(-0.346505 0.76804 0)
(-0.530304 0.817019 0)
(-0.67513 0.882989 0)
(-0.774862 0.953106 0)
(-0.831386 1.01173 0)
(-0.846245 1.0343 0)
(-0.829199 1.0054 0)
(-0.796142 0.916914 0)
(-0.763537 0.782817 0)
(-0.731667 0.620978 0)
(-0.653433 0.396624 0)
(-0.48251 0.0619162 0)
(-0.31823 -0.267442 0)
(-0.282536 -0.423253 0)
(-0.238777 -0.565342 0)
(-0.165747 -0.712137 0)
(-0.094478 -0.831297 0)
(-0.0207457 -0.913817 0)
(0.0589454 -0.958434 0)
(0.0767432 -0.963423 0)
(-0.110591 -0.975086 0)
(-0.480155 -1.10652 0)
(-0.874525 -1.16797 0)
(-1.14547 -0.773068 0)
(-0.0946688 0.91137 0)
(-0.270806 0.937873 0)
(-0.423678 0.949054 0)
(-0.536114 0.979224 0)
(-0.609083 1.01357 0)
(-0.64481 1.03799 0)
(-0.646539 1.03287 0)
(-0.624584 0.986205 0)
(-0.594855 0.888551 0)
(-0.566647 0.751207 0)
(-0.518394 0.558287 0)
(-0.384146 0.243985 0)
(-0.172225 -0.161431 0)
(-0.0944143 -0.355824 0)
(-0.144021 -0.449391 0)
(-0.10006 -0.607245 0)
(-0.0290537 -0.765137 0)
(0.0352935 -0.888602 0)
(0.100271 -0.966776 0)
(0.177905 -0.998434 0)
(0.246426 -0.97617 0)
(0.21718 -0.918949 0)
(-0.00976639 -0.835255 0)
(-0.285832 -0.925951 0)
(-0.343959 -0.982238 0)
(-0.0645465 1.06723 0)
(-0.19103 1.07365 0)
(-0.313266 1.05021 0)
(-0.393804 1.04968 0)
(-0.442343 1.05386 0)
(-0.461556 1.05169 0)
(-0.45426 1.02685 0)
(-0.427807 0.967202 0)
(-0.394198 0.863058 0)
(-0.356029 0.713007 0)
(-0.280235 0.472629 0)
(-0.0981877 0.0743582 0)
(0.111972 -0.288216 0)
(0.09258 -0.372498 0)
(0.0276537 -0.47906 0)
(0.0787837 -0.651734 0)
(0.159305 -0.82047 0)
(0.229222 -0.946717 0)
(0.287508 -1.0247 0)
(0.351347 -1.05208 0)
(0.413452 -1.01591 0)
(0.421614 -0.920685 0)
(0.322091 -0.800833 0)
(0.178595 -0.766499 0)
(0.155479 -0.868817 0)
(-0.0370738 1.17365 0)
(-0.119844 1.177 0)
(-0.211653 1.12474 0)
(-0.263528 1.09859 0)
(-0.290799 1.07707 0)
(-0.295598 1.05312 0)
(-0.279727 1.01336 0)
(-0.244867 0.943175 0)
(-0.198247 0.829287 0)
(-0.142492 0.659738 0)
(-0.051463 0.387453 0)
(0.13813 -0.0325574 0)
(0.268532 -0.263654 0)
(0.242722 -0.398047 0)
(0.205831 -0.527311 0)
(0.267747 -0.711063 0)
(0.362828 -0.885778 0)
(0.440811 -1.00774 0)
(0.501496 -1.07885 0)
(0.563786 -1.10214 0)
(0.625516 -1.06006 0)
(0.648289 -0.942225 0)
(0.598096 -0.795879 0)
(0.534181 -0.747115 0)
(0.565178 -0.927464 0)
(-0.0118696 1.2342 0)
(-0.0587488 1.24143 0)
(-0.122788 1.17366 0)
(-0.148201 1.12604 0)
(-0.157149 1.08184 0)
(-0.148258 1.0374 0)
(-0.121535 0.983229 0)
(-0.0740166 0.902734 0)
(-0.00904381 0.776821 0)
(0.0663493 0.590674 0)
(0.158796 0.320103 0)
(0.315845 -0.0272686 0)
(0.392254 -0.261775 0)
(0.364121 -0.42014 0)
(0.377597 -0.588374 0)
(0.470884 -0.793744 0)
(0.574713 -0.968686 0)
(0.653572 -1.08017 0)
(0.712953 -1.13998 0)
(0.772513 -1.1575 0)
(0.831201 -1.11038 0)
(0.858437 -0.982756 0)
(0.834331 -0.820581 0)
(0.818741 -0.783772 0)
(0.88849 -1.00189 0)
(0.0122606 1.25242 0)
(-0.00443399 1.27772 0)
(-0.0429936 1.19583 0)
(-0.0428117 1.13413 0)
(-0.0352835 1.06951 0)
(-0.0132165 1.00363 0)
(0.0255686 0.931615 0)
(0.0846586 0.83831 0)
(0.162524 0.703313 0)
(0.25221 0.509504 0)
(0.348501 0.248514 0)
(0.465313 -0.0517549 0)
(0.509118 -0.276871 0)
(0.507885 -0.453276 0)
(0.573779 -0.667373 0)
(0.687538 -0.890292 0)
(0.788538 -1.05464 0)
(0.860322 -1.14997 0)
(0.913442 -1.19613 0)
(0.965114 -1.20326 0)
(1.01258 -1.15063 0)
(1.03012 -1.01394 0)
(1.01657 -0.853351 0)
(1.04293 -0.85387 0)
(1.15716 -1.11301 0)
(0.0359179 1.23304 0)
(0.0491449 1.29163 0)
(0.0306994 1.18914 0)
(0.051964 1.12194 0)
(0.0790469 1.04524 0)
(0.11358 0.959891 0)
(0.161504 0.867898 0)
(0.228317 0.758764 0)
(0.313489 0.614074 0)
(0.410208 0.419203 0)
(0.509448 0.169576 0)
(0.596224 -0.0901661 0)
(0.622068 -0.299443 0)
(0.669651 -0.523211 0)
(0.782384 -0.778103 0)
(0.901773 -0.994809 0)
(0.98957 -1.13424 0)
(1.0485 -1.20982 0)
(1.09033 -1.2417 0)
(1.12755 -1.23454 0)
(1.1538 -1.1732 0)
(1.15303 -1.03148 0)
(1.15276 -0.897904 0)
(1.23305 -0.96568 0)
(1.3965 -1.26157 0)
(0.0647094 1.17335 0)
(0.113936 1.27373 0)
(0.103548 1.16339 0)
(0.12416 1.08091 0)
(0.169357 1.00016 0)
(0.219076 0.905792 0)
(0.275851 0.799586 0)
(0.347137 0.676715 0)
(0.433791 0.52535 0)
(0.529315 0.332556 0)
(0.628254 0.0970396 0)
(0.687993 -0.1344 0)
(0.740991 -0.380435 0)
(0.853551 -0.656558 0)
(0.98914 -0.910904 0)
(1.09463 -1.09375 0)
(1.16155 -1.20055 0)
(1.20398 -1.25572 0)
(1.22915 -1.26636 0)
(1.24525 -1.24591 0)
(1.24381 -1.17623 0)
(1.23153 -1.0444 0)
(1.27063 -0.975885 0)
(1.42063 -1.13011 0)
(1.62516 -1.44271 0)
(0.103699 1.06315 0)
(0.204029 1.2359 0)
(0.204838 1.14873 0)
(0.195638 1.02931 0)
(0.225798 0.928285 0)
(0.278146 0.825581 0)
(0.339598 0.711748 0)
(0.413661 0.580157 0)
(0.500537 0.422254 0)
(0.595767 0.228175 0)
(0.682692 0.00403088 0)
(0.762325 -0.257348 0)
(0.891562 -0.548573 0)
(1.04522 -0.821769 0)
(1.17035 -1.03485 0)
(1.24837 -1.17199 0)
(1.29123 -1.24639 0)
(1.31373 -1.27833 0)
(1.31703 -1.27103 0)
(1.30981 -1.242 0)
(1.28851 -1.16401 0)
(1.29857 -1.07847 0)
(1.41261 -1.11794 0)
(1.62858 -1.34555 0)
(1.84779 -1.63839 0)
(0.143951 0.8869 0)
(0.313467 1.17154 0)
(0.357743 1.13908 0)
(0.332413 1.01444 0)
(0.316669 0.874058 0)
(0.334564 0.73913 0)
(0.379098 0.603395 0)
(0.445725 0.454202 0)
(0.532206 0.279812 0)
(0.630436 0.0741981 0)
(0.736004 -0.180326 0)
(0.893859 -0.467708 0)
(1.06941 -0.741136 0)
(1.2108 -0.96633 0)
(1.30169 -1.1264 0)
(1.34633 -1.22086 0)
(1.3639 -1.26699 0)
(1.36082 -1.2802 0)
(1.34778 -1.26172 0)
(1.32934 -1.22304 0)
(1.32134 -1.16696 0)
(1.40591 -1.18042 0)
(1.60711 -1.33129 0)
(1.85229 -1.58401 0)
(2.04818 -1.8189 0)
(0.153131 0.626285 0)
(0.394507 1.05494 0)
(0.520432 1.115 0)
(0.536044 1.02769 0)
(0.511245 0.87412 0)
(0.495696 0.702866 0)
(0.507829 0.526794 0)
(0.553435 0.340402 0)
(0.631534 0.133881 0)
(0.738014 -0.10494 0)
(0.899458 -0.377424 0)
(1.07293 -0.648959 0)
(1.21546 -0.884058 0)
(1.31054 -1.06137 0)
(1.355 -1.17823 0)
(1.36937 -1.24183 0)
(1.37317 -1.27254 0)
(1.35857 -1.25596 0)
(1.33752 -1.23702 0)
(1.3325 -1.20887 0)
(1.40134 -1.24072 0)
(1.58982 -1.37462 0)
(1.83697 -1.58536 0)
(2.05621 -1.80111 0)
(2.19938 -1.95651 0)
(0.112336 0.320133 0)
(0.388006 0.82206 0)
(0.6018 1.02582 0)
(0.703735 1.0124 0)
(0.733175 0.887723 0)
(0.73315 0.709932 0)
(0.741495 0.506937 0)
(0.775074 0.285981 0)
(0.838558 0.0456332 0)
(0.945058 -0.219741 0)
(1.0751 -0.497272 0)
(1.17869 -0.7547 0)
(1.25751 -0.963032 0)
(1.307 -1.10828 0)
(1.33389 -1.19712 0)
(1.33771 -1.24281 0)
(1.32421 -1.24758 0)
(1.30582 -1.24006 0)
(1.3216 -1.23635 0)
(1.3968 -1.28647 0)
(1.5836 -1.42812 0)
(1.82355 -1.62561 0)
(2.04279 -1.81453 0)
(2.19623 -1.95675 0)
(2.281 -2.03987 0)
(0.0528987 0.107339 0)
(0.296732 0.534417 0)
(0.559 0.831809 0)
(0.739543 0.918947 0)
(0.836349 0.855188 0)
(0.886187 0.703426 0)
(0.917536 0.501923 0)
(0.950832 0.26886 0)
(0.993128 0.0104449 0)
(1.04994 -0.267772 0)
(1.09974 -0.542186 0)
(1.1407 -0.789347 0)
(1.14707 -0.986697 0)
(1.16202 -1.12253 0)
(1.18243 -1.20293 0)
(1.20248 -1.23904 0)
(1.22249 -1.25115 0)
(1.27335 -1.26471 0)
(1.38352 -1.33047 0)
(1.57575 -1.47897 0)
(1.80819 -1.67106 0)
(2.01586 -1.84614 0)
(2.16385 -1.96949 0)
(2.25155 -2.04431 0)
(2.29654 -2.08226 0)
(0.0136409 -0.00919029 0)
(0.174466 0.2621 0)
(0.426425 0.586887 0)
(0.639866 0.757226 0)
(0.782254 0.763289 0)
(0.868516 0.658071 0)
(0.919611 0.484668 0)
(0.945912 0.267241 0)
(0.956253 0.0194553 0)
(0.951935 -0.249853 0)
(0.896946 -0.515322 0)
(0.850111 -0.779563 0)
(0.878964 -1.00364 0)
(0.954037 -1.15644 0)
(1.03768 -1.24362 0)
(1.118 -1.28839 0)
(1.21433 -1.32512 0)
(1.35646 -1.39767 0)
(1.5573 -1.53682 0)
(1.78119 -1.71426 0)
(1.97425 -1.87589 0)
(2.10844 -1.98826 0)
(2.18998 -2.05311 0)
(2.23676 -2.08903 0)
(2.26584 -2.10838 0)
(0.00162405 -0.0699203 0)
(0.0662078 0.0332016 0)
(0.270014 0.337049 0)
(0.469364 0.560471 0)
(0.614053 0.626699 0)
(0.706505 0.573797 0)
(0.761538 0.444715 0)
(0.778429 0.266395 0)
(0.759976 0.0580294 0)
(0.683996 -0.177663 0)
(0.520783 -0.441949 0)
(0.538789 -0.803739 0)
(0.689497 -1.0998 0)
(0.856445 -1.27359 0)
(1.00475 -1.36456 0)
(1.14892 -1.42282 0)
(1.31601 -1.49549 0)
(1.51832 -1.61252 0)
(1.73022 -1.7625 0)
(1.90864 -1.90285 0)
(2.0306 -2.00306 0)
(2.1039 -2.06266 0)
(2.14886 -2.09691 0)
(2.18178 -2.11956 0)
(2.21228 -2.13551 0)
(0.00277828 -0.0467351 0)
(0.0175745 -0.026889 0)
(0.132833 0.188075 0)
(0.28959 0.413781 0)
(0.405442 0.509478 0)
(0.477076 0.497318 0)
(0.510414 0.412893 0)
(0.506091 0.27823 0)
(0.486672 0.104058 0)
(0.35786 -0.0516401 0)
(0.254199 -0.415006 0)
(0.43787 -0.954353 0)
(0.673497 -1.29044 0)
(0.873954 -1.45859 0)
(1.05482 -1.546 0)
(1.2406 -1.61576 0)
(1.44157 -1.70611 0)
(1.64117 -1.82008 0)
(1.8077 -1.93162 0)
(1.92327 -2.01642 0)
(1.99495 -2.07087 0)
(2.04162 -2.10528 0)
(2.07926 -2.13077 0)
(2.1163 -2.15287 0)
(2.15729 -2.17269 0)
(0.0208621 -0.0663072 0)
(0.0171861 0.0118017 0)
(0.0432399 0.178657 0)
(0.137439 0.363857 0)
(0.208071 0.465577 0)
(0.245235 0.477582 0)
(0.253421 0.418685 0)
(0.234314 0.323475 0)
(0.217762 0.251146 0)
(0.0734953 0.255456 0)
(0.19888 -0.520444 0)
(0.463311 -1.17268 0)
(0.696553 -1.50936 0)
(0.907027 -1.6685 0)
(1.1109 -1.75296 0)
(1.31473 -1.82214 0)
(1.50792 -1.89851 0)
(1.66899 -1.97598 0)
(1.78541 -2.04036 0)
(1.86312 -2.08656 0)
(1.91794 -2.11941 0)
(1.96401 -2.14618 0)
(2.00936 -2.17175 0)
(2.05814 -2.19777 0)
(2.11212 -2.22401 0)
(0.0414147 -0.180626 0)
(0.0515361 -0.118589 0)
(0.0156394 0.144799 0)
(0.0364413 0.335172 0)
(0.0726246 0.442203 0)
(0.084153 0.493345 0)
(0.0542354 0.511435 0)
(-0.0516231 0.534227 0)
(-0.151306 0.480896 0)
(-0.0355639 0.266647 0)
(0.231679 -0.739989 0)
(0.489868 -1.40408 0)
(0.724744 -1.73756 0)
(0.946966 -1.88673 0)
(1.157 -1.95844 0)
(1.34813 -2.00694 0)
(1.50786 -2.05044 0)
(1.62891 -2.0891 0)
(1.71628 -2.12059 0)
(1.78254 -2.14652 0)
(1.83948 -2.17085 0)
(1.89451 -2.19669 0)
(1.95139 -2.22524 0)
(2.01137 -2.25582 0)
(2.07471 -2.28685 0)
(0.0500415 -0.310961 0)
(0.122829 -0.295748 0)
(0.0691562 -0.0591517 0)
(0.0348458 0.253095 0)
(0.0234217 0.470246 0)
(-0.0577584 0.638497 0)
(-0.202827 0.746427 0)
(-0.331209 0.740484 0)
(-0.230822 0.540669 0)
(-0.0173163 0.00616695 0)
(0.294522 -0.96877 0)
(0.557314 -1.63532 0)
(0.790547 -1.96032 0)
(1.00351 -2.09107 0)
(1.1919 -2.13873 0)
(1.34952 -2.15798 0)
(1.47353 -2.16975 0)
(1.56853 -2.18032 0)
(1.64452 -2.19242 0)
(1.71143 -2.20859 0)
(1.77573 -2.23045 0)
(1.84034 -2.25784 0)
(1.90582 -2.28908 0)
(1.97219 -2.32195 0)
(2.03922 -2.35443 0)
(0.0442249 -0.337703 0)
(0.165345 -0.347225 0)
(0.10963 -0.0330844 0)
(-0.0319007 0.399639 0)
(-0.155375 0.689301 0)
(-0.300526 0.866176 0)
(-0.429208 0.924669 0)
(-0.401934 0.788522 0)
(-0.172979 0.433499 0)
(0.127169 -0.235649 0)
(0.423889 -1.16671 0)
(0.673263 -1.84502 0)
(0.884618 -2.15902 0)
(1.06595 -2.26587 0)
(1.21701 -2.28645 0)
(1.33873 -2.27874 0)
(1.43579 -2.2667 0)
(1.51638 -2.26002 0)
(1.58896 -2.26272 0)
(1.65924 -2.27578 0)
(1.7293 -2.29778 0)
(1.79887 -2.32594 0)
(1.86728 -2.35727 0)
(1.93415 -2.3895 0)
(2.00006 -2.42149 0)
(0.00913362 -0.281439 0)
(0.0673752 -0.104098 0)
(-0.0895533 0.284326 0)
(-0.232441 0.63209 0)
(-0.329371 0.850209 0)
(-0.4074 0.942624 0)
(-0.415413 0.854144 0)
(-0.199314 0.533652 0)
(0.130875 0.095695 0)
(0.344368 -0.468976 0)
(0.60374 -1.35143 0)
(0.8224 -2.03134 0)
(0.994566 -2.32541 0)
(1.1318 -2.4052 0)
(1.24249 -2.40085 0)
(1.33336 -2.37293 0)
(1.41132 -2.34713 0)
(1.4832 -2.33336 0)
(1.55374 -2.33375 0)
(1.62457 -2.34646 0)
(1.69489 -2.36791 0)
(1.76332 -2.39458 0)
(1.82917 -2.42389 0)
(1.89313 -2.45453 0)
(1.95649 -2.48612 0)
(-0.0452303 -0.162587 0)
(-0.125723 0.158572 0)
(-0.255995 0.486497 0)
(-0.332091 0.737463 0)
(-0.362065 0.864673 0)
(-0.368176 0.864648 0)
(-0.227257 0.587263 0)
(0.291229 -0.240588 0)
(0.439416 -0.39423 0)
(0.588305 -0.751073 0)
(0.807264 -1.53299 0)
(0.986382 -2.18787 0)
(1.11077 -2.44853 0)
(1.2012 -2.50323 0)
(1.27462 -2.48212 0)
(1.34024 -2.44473 0)
(1.40348 -2.41545 0)
(1.46749 -2.40165 0)
(1.53312 -2.40264 0)
(1.59936 -2.41485 0)
(1.66462 -2.43453 0)
(1.72782 -2.45888 0)
(1.78919 -2.48634 0)
(1.84959 -2.51623 0)
(1.91034 -2.54847 0)
(-0.0800839 -0.100082 0)
(-0.202164 0.30978 0)
(-0.277412 0.56794 0)
(-0.289593 0.730712 0)
(-0.267999 0.797212 0)
(-0.184016 0.637508 0)
(0.192494 -0.0324484 0)
(0.498144 -0.597195 0)
(0.635757 -0.739399 0)
(0.796073 -1.01648 0)
(0.994002 -1.7009 0)
(1.13899 -2.30736 0)
(1.21925 -2.52599 0)
(1.26835 -2.56265 0)
(1.31077 -2.53563 0)
(1.35577 -2.49876 0)
(1.40571 -2.47276 0)
(1.46016 -2.46213 0)
(1.51746 -2.46453 0)
(1.57576 -2.47632 0)
(1.63378 -2.49464 0)
(1.69109 -2.51772 0)
(1.74791 -2.54464 0)
(1.80501 -2.57494 0)
(1.86309 -2.60842 0)
(-0.0648703 -0.0944579 0)
(-0.170131 0.36475 0)
(-0.195645 0.563478 0)
(-0.157624 0.667231 0)
(-0.0839547 0.635299 0)
(0.063506 0.358576 0)
(0.393785 -0.357547 0)
(0.614104 -0.859952 0)
(0.767532 -0.989068 0)
(0.942259 -1.23622 0)
(1.14008 -1.85866 0)
(1.26133 -2.39954 0)
(1.30678 -2.57071 0)
(1.32441 -2.59216 0)
(1.3431 -2.56727 0)
(1.37104 -2.53717 0)
(1.40826 -2.51804 0)
(1.45223 -2.51232 0)
(1.50021 -2.51727 0)
(1.5503 -2.52992 0)
(1.60151 -2.5484 0)
(1.65346 -2.57169 0)
(1.70619 -2.59917 0)
(1.75975 -2.63043 0)
(1.81441 -2.66526 0)
(-0.0137017 -0.124676 0)
(-0.0845777 0.33447 0)
(-0.0831749 0.497046 0)
(-0.00454383 0.540546 0)
(0.0951868 0.439485 0)
(0.280638 0.0446978 0)
(0.508466 -0.605072 0)
(0.685843 -1.02094 0)
(0.838856 -1.15881 0)
(1.03578 -1.44225 0)
(1.2454 -2.02107 0)
(1.3445 -2.47241 0)
(1.3632 -2.58786 0)
(1.36002 -2.5984 0)
(1.36255 -2.58181 0)
(1.37747 -2.56197 0)
(1.40405 -2.552 0)
(1.43894 -2.55278 0)
(1.47901 -2.56173 0)
(1.52234 -2.57675 0)
(1.56789 -2.59676 0)
(1.61515 -2.62123 0)
(1.66367 -2.64979 0)
(1.71337 -2.6822 0)
(1.76422 -2.71831 0)
(0.0338388 -0.190373 0)
(0.0096715 0.248186 0)
(0.0262599 0.388592 0)
(0.119772 0.376513 0)
(0.230708 0.220784 0)
(0.38469 -0.215405 0)
(0.55109 -0.794089 0)
(0.70995 -1.16316 0)
(0.873862 -1.34079 0)
(1.10273 -1.67046 0)
(1.31153 -2.18356 0)
(1.37849 -2.52158 0)
(1.37997 -2.59135 0)
(1.36893 -2.595 0)
(1.36305 -2.5857 0)
(1.37047 -2.57739 0)
(1.3904 -2.57786 0)
(1.41922 -2.58612 0)
(1.45372 -2.59997 0)
(1.49195 -2.6182 0)
(1.53285 -2.6404 0)
(1.57572 -2.66647 0)
(1.62015 -2.69635 0)
(1.66579 -2.72996 0)
(1.71255 -2.76733 0)
(0.0396378 -0.219113 0)
(0.0775775 0.146118 0)
(0.115841 0.266265 0)
(0.195209 0.220496 0)
(0.284778 0.0405603 0)
(0.376686 -0.404479 0)
(0.522832 -0.965744 0)
(0.697364 -1.3298 0)
(0.900301 -1.56392 0)
(1.15898 -1.91278 0)