/*--------------------------------*- C++ -*----------------------------------*\
  =========                 |
  \\      /  F ield         | OpenFOAM: The Open Source CFD Toolbox
   \\    /   O peration     | Website:  https://openfoam.org
    \\  /    A nd           | Version:  13
     \\/     M anipulation  |
\*---------------------------------------------------------------------------*/
FoamFile
{
    format      ascii;
    class       volVectorField;
    location    "10";
    object      U;
}
// * * * * * * * * * * * * * * * * * * * * * * * * * * * * * * * * * * * * * //

dimensions      [0 1 -1 0 0 0 0];

internalField   nonuniform List<vector> 
6440
(
(1.11972e-06 -2.2495e-06 0)
(3.15919e-06 -2.9634e-06 0)
(5.4099e-06 -2.74501e-06 3.54691e-20)
(7.16173e-06 -2.97757e-06 -3.53629e-20)
(8.83578e-06 -3.58629e-06 0)
(1.02729e-05 -4.32977e-06 7.03381e-20)
(1.14031e-05 -5.12544e-06 -6.99247e-20)
(1.22119e-05 -5.9263e-06 0)
(1.26356e-05 -6.66446e-06 -1.38394e-19)
(1.26138e-05 -7.26949e-06 1.37203e-19)
(1.21141e-05 -7.67186e-06 1.36177e-19)
(1.11326e-05 -7.80828e-06 7.19587e-23)
(9.69929e-06 -7.63039e-06 1.8841e-23)
(7.89318e-06 -7.11353e-06 -1.31779e-19)
(5.80746e-06 -6.24578e-06 -1.29984e-19)
(3.52515e-06 -5.01421e-06 1.28245e-19)
(1.18538e-06 -3.47911e-06 0)
(-1.04802e-06 -1.78042e-06 -2.48061e-19)
(-3.08994e-06 -8.12162e-09 4.95491e-22)
(-4.90052e-06 1.83062e-06 2.3986e-19)
(-6.36198e-06 3.52273e-06 -2.34806e-19)
(-7.28766e-06 4.58849e-06 4.61027e-19)
(-8.64925e-06 4.70254e-06 -2.26185e-19)
(-7.93669e-06 1.47671e-06 2.21025e-19)
(-2.28571e-06 -3.23022e-06 -1.80249e-22)
(9.68391e-07 -6.0258e-06 0)
(2.59005e-06 -7.70692e-06 0)
(4.31207e-06 -6.83773e-06 3.74282e-20)
(5.76033e-06 -6.86308e-06 -3.7318e-20)
(7.20963e-06 -7.56351e-06 0)
(8.555e-06 -8.48027e-06 7.42508e-20)
(9.74875e-06 -9.44409e-06 -7.38207e-20)
(1.07763e-05 -1.04184e-05 0)
(1.15928e-05 -1.13492e-05 0)
(1.21296e-05 -1.21465e-05 0)
(1.23317e-05 -1.27277e-05 0)
(1.21541e-05 -1.30136e-05 1.42652e-19)
(1.15769e-05 -1.29412e-05 -1.41087e-19)
(1.06281e-05 -1.24724e-05 0)
(9.40202e-06 -1.16055e-05 -1.37685e-19)
(7.91842e-06 -1.03083e-05 1.35866e-19)
(6.05558e-06 -8.55232e-06 0)
(3.84254e-06 -6.45344e-06 0)
(1.69365e-06 -4.28282e-06 -2.58133e-19)
(-1.41045e-07 -2.174e-06 2.54065e-19)
(-1.69856e-06 -2.0378e-07 -2.48271e-19)
(-2.8382e-06 1.11964e-06 2.4409e-19)
(-5.13831e-06 1.44795e-06 2.38001e-19)
(-7.50697e-06 -1.58345e-06 -8.9032e-22)
(-9.21932e-07 -8.79903e-06 -1.71901e-19)
(8.1237e-07 -8.85623e-06 0)
(2.44163e-06 -1.09416e-05 0)
(3.94151e-06 -9.59442e-06 3.7515e-20)
(5.29207e-06 -9.49731e-06 -3.74111e-20)
(6.71342e-06 -1.02033e-05 0)
(8.19414e-06 -1.11811e-05 7.45136e-20)
(9.62166e-06 -1.22529e-05 -1.48349e-19)
(1.08655e-05 -1.32995e-05 7.37726e-20)
(1.19389e-05 -1.42947e-05 -1.4705e-19)
(1.27858e-05 -1.5145e-05 1.45873e-19)
(1.33027e-05 -1.57341e-05 1.45087e-19)
(1.34091e-05 -1.59583e-05 1.89263e-22)
(1.3056e-05 -1.57318e-05 -1.4239e-19)
(1.22581e-05 -1.50092e-05 -1.40984e-19)
(1.10728e-05 -1.37836e-05 3.65982e-23)
(9.41503e-06 -1.19969e-05 1.37541e-19)
(7.10162e-06 -9.58375e-06 0)
(4.29203e-06 -6.68219e-06 -2.66334e-19)
(1.4692e-06 -3.68397e-06 2.62504e-19)
(-1.07453e-06 -8.09914e-07 0)
(-3.24568e-06 1.79693e-06 -2.51584e-19)
(-4.67265e-06 3.63721e-06 4.93868e-19)
(-6.54867e-06 4.39826e-06 -2.4225e-19)
(-8.87899e-06 2.57753e-06 2.35762e-19)
(-1.31223e-07 -6.27689e-06 -1.76213e-19)
(7.41837e-07 -1.13308e-05 0)
(2.45682e-06 -1.33359e-05 0)
(3.79612e-06 -1.16215e-05 3.74243e-20)
(5.08472e-06 -1.14919e-05 -3.73269e-20)
(6.45276e-06 -1.2218e-05 0)
(7.87959e-06 -1.32506e-05 7.44338e-20)
(9.39959e-06 -1.45009e-05 -1.48262e-19)
(1.08266e-05 -1.58024e-05 7.37686e-20)
(1.20414e-05 -1.70592e-05 0)
(1.30497e-05 -1.81943e-05 0)
(1.3749e-05 -1.90599e-05 0)
(1.40233e-05 -1.9513e-05 1.44474e-19)
(1.37888e-05 -1.94235e-05 -1.43058e-19)
(1.30098e-05 -1.87062e-05 -1.41854e-19)
(1.17458e-05 -1.73597e-05 1.40268e-19)
(9.96429e-06 -1.53396e-05 0)
(7.45654e-06 -1.2466e-05 -2.73085e-19)
(4.11006e-06 -8.69817e-06 2.69519e-19)
(5.23413e-07 -4.69726e-06 0)
(-2.69409e-06 -8.66714e-07 0)
(-5.40252e-06 2.58159e-06 0)
(-7.07434e-06 5.1341e-06 0)
(-8.42622e-06 6.46835e-06 0)
(-1.06152e-05 6.20959e-06 2.37936e-19)
(1.70859e-07 -3.69259e-06 -4.73251e-22)
(6.83713e-07 -1.37151e-05 0)
(2.47358e-06 -1.52458e-05 0)
(3.62844e-06 -1.32237e-05 3.71788e-20)
(4.79238e-06 -1.31104e-05 -3.70877e-20)
(6.01794e-06 -1.38802e-05 0)
(7.27682e-06 -1.49758e-05 7.40467e-20)
(8.66186e-06 -1.63661e-05 -1.47561e-19)
(1.00615e-05 -1.79646e-05 7.34579e-20)
(1.13074e-05 -1.95192e-05 0)
(1.23766e-05 -2.09824e-05 0)
(1.31923e-05 -2.22118e-05 0)
(1.36195e-05 -2.30119e-05 1.4447e-19)
(1.35444e-05 -2.3209e-05 -1.43133e-19)
(1.28695e-05 -2.26579e-05 -1.42156e-19)
(1.16232e-05 -2.13178e-05 1.40653e-19)
(9.9265e-06 -1.92366e-05 0)
(7.62026e-06 -1.62618e-05 -2.74453e-19)
(4.11926e-06 -1.20007e-05 2.71059e-19)
(-3.17406e-10 -6.99789e-06 0)
(-3.80336e-06 -2.21533e-06 0)
(-7.09123e-06 2.08942e-06 0)
(-9.17564e-06 5.37882e-06 0)
(-1.0216e-05 7.22445e-06 0)
(-1.24166e-05 8.60918e-06 2.39496e-19)
(2.84566e-07 -1.56448e-06 -1.83355e-19)
(6.16654e-07 -1.60418e-05 0)
(2.45911e-06 -1.67903e-05 0)
(3.40127e-06 -1.44757e-05 3.68e-20)
(4.37972e-06 -1.43477e-05 -3.67151e-20)
(5.37691e-06 -1.50959e-05 0)
(6.34617e-06 -1.61942e-05 7.33917e-20)
(7.38755e-06 -1.7631e-05 -1.46321e-19)
(8.6652e-06 -1.94224e-05 7.28772e-20)
(9.93103e-06 -2.13382e-05 -1.45802e-19)
(1.09538e-05 -2.31637e-05 1.44824e-19)
(1.18165e-05 -2.48134e-05 0)
(1.24223e-05 -2.60797e-05 1.43932e-19)
(1.26121e-05 -2.67404e-05 3.54385e-22)
(1.22343e-05 -2.65858e-05 -2.83634e-19)
(1.12166e-05 -2.54784e-05 1.4053e-19)
(9.68646e-06 -2.34686e-05 0)
(7.74297e-06 -2.0645e-05 -2.74962e-19)
(4.75548e-06 -1.65654e-05 6.56477e-22)
(4.45396e-07 -1.09441e-05 1.0214e-21)
(-4.18383e-06 -5.06276e-06 2.63342e-19)
(-8.21747e-06 1.93636e-07 0)
(-1.09613e-05 4.33271e-06 0)
(-1.18882e-05 6.75074e-06 0)
(-1.41353e-05 9.87544e-06 2.40536e-19)
(3.08483e-07 1.78772e-07 -1.86278e-19)
(5.51715e-07 -1.83028e-05 0)
(2.44416e-06 -1.80327e-05 0)
(3.18277e-06 -1.5418e-05 3.63087e-20)
(3.96615e-06 -1.52086e-05 -3.62297e-20)
(4.69969e-06 -1.58464e-05 -7.25647e-20)
(5.36757e-06 -1.68775e-05 1.44812e-19)
(6.05936e-06 -1.82924e-05 -1.44627e-19)
(6.92828e-06 -2.01274e-05 7.2068e-20)
(7.97224e-06 -2.23508e-05 0)
(8.97976e-06 -2.45554e-05 -1.43986e-19)
(9.89314e-06 -2.66582e-05 1.42981e-19)
(1.07039e-05 -2.84969e-05 1.42923e-19)
(1.12623e-05 -2.98149e-05 -1.41743e-19)
(1.13779e-05 -3.03407e-05 -1.41289e-19)
(1.08598e-05 -2.98204e-05 1.39952e-19)
(9.6666e-06 -2.81576e-05 0)
(8.00557e-06 -2.55314e-05 -2.74706e-19)
(5.67428e-06 -2.19237e-05 2.71655e-19)
(1.77747e-06 -1.64422e-05 0)
(-3.45161e-06 -9.62259e-06 -2.62478e-19)
(-8.53507e-06 -3.08393e-06 2.5918e-19)
(-1.2206e-05 2.22018e-06 0)
(-1.30839e-05 5.40602e-06 0)
(-1.54544e-05 1.02158e-05 2.41126e-19)
(3.7171e-07 1.5226e-06 -6.98012e-22)
(5.02271e-07 -2.05105e-05 0)
(2.46098e-06 -1.90604e-05 0)
(3.04058e-06 -1.61353e-05 3.57233e-20)
(3.65688e-06 -1.57756e-05 -3.565e-20)
(4.13819e-06 -1.62302e-05 0)
(4.49517e-06 -1.71238e-05 7.14363e-20)
(4.80161e-06 -1.84663e-05 -7.11464e-20)
(5.19107e-06 -2.02767e-05 0)
(5.96319e-06 -2.25996e-05 0)
(6.91125e-06 -2.51621e-05 0)
(7.78482e-06 -2.7676e-05 0)
(8.73357e-06 -3.01152e-05 1.41507e-19)
(9.67299e-06 -3.22313e-05 -1.40405e-19)
(1.03893e-05 -3.36897e-05 0)
(1.06079e-05 -3.41265e-05 0)
(1.00769e-05 -3.3235e-05 0)
(8.76131e-06 -3.09728e-05 0)
(6.97953e-06 -2.77267e-05 0)
(3.89563e-06 -2.29935e-05 -2.66795e-19)
(-1.3959e-06 -1.58855e-05 2.63735e-19)
(-7.49286e-06 -7.89264e-06 0)
(-1.22472e-05 -1.15289e-06 0)
(-1.3549e-05 3.05425e-06 0)
(-1.65864e-05 9.56481e-06 2.41336e-19)
(3.62262e-07 2.38966e-06 -1.9101e-19)
(4.78456e-07 -2.26931e-05 0)
(2.53806e-06 -1.99822e-05 0)
(3.041e-06 -1.67471e-05 3.50602e-20)
(3.56729e-06 -1.61874e-05 -3.49923e-20)
(3.87547e-06 -1.64145e-05 0)
(3.99309e-06 -1.71238e-05 7.02051e-20)
(3.9948e-06 -1.833e-05 -1.40151e-19)
(3.99315e-06 -2.00143e-05 6.99034e-20)
(4.29469e-06 -2.2208e-05 0)
(5.00483e-06 -2.49462e-05 0)
(5.82784e-06 -2.78363e-05 -1.40037e-19)
(6.77412e-06 -3.08299e-05 2.78832e-19)
(7.99614e-06 -3.37774e-05 -1.38719e-19)
(9.32683e-06 -3.6335e-05 -1.38812e-19)
(1.04429e-05 -3.80463e-05 1.37634e-19)
(1.09305e-05 -3.84076e-05 0)
(1.04005e-05 -3.70365e-05 2.72173e-19)
(8.84287e-06 -3.40179e-05 -2.69452e-19)
(6.34795e-06 -2.98633e-05 0)
(1.93787e-06 -2.34398e-05 0)
(-4.76305e-06 -1.45768e-05 0)
(-1.12283e-05 -5.92678e-06 -2.52142e-19)
(-1.37294e-05 -3.20499e-07 2.49079e-19)
(-1.75725e-05 7.95565e-06 2.41211e-19)
(4.83549e-07 2.80503e-06 -1.92878e-19)
(4.83576e-07 -2.48824e-05 0)
(2.68821e-06 -2.09162e-05 0)
(3.22344e-06 -1.73993e-05 0)
(3.77726e-06 -1.6633e-05 0)
(4.04911e-06 -1.66435e-05 0)
(4.07506e-06 -1.71821e-05 0)
(3.92299e-06 -1.82456e-05 0)
(3.68123e-06 -1.9778e-05 0)
(3.56246e-06 -2.17664e-05 1.37923e-19)
(3.83477e-06 -2.43311e-05 -1.37189e-19)
(4.37011e-06 -2.73575e-05 0)
(5.16445e-06 -3.0684e-05 0)
(6.49023e-06 -3.42905e-05 0)
(8.30134e-06 -3.79097e-05 0)
(1.03195e-05 -4.10441e-05 0)
(1.2033e-05 -4.30199e-05 0)
(1.27604e-05 -4.31509e-05 0)
(1.19012e-05 -4.09688e-05 2.67658e-19)
(9.74244e-06 -3.69216e-05 -2.64997e-19)
(5.95487e-06 -3.12582e-05 0)
(-6.88128e-07 -2.26381e-05 2.56744e-19)
(-8.71057e-06 -1.21494e-05 -2.53887e-19)
(-1.29465e-05 -4.34415e-06 0)
(-1.7785e-05 6.23712e-06 0)
(9.08631e-07 3.29539e-06 0)
(5.14395e-07 -2.70989e-05 0)
(2.90707e-06 -2.19704e-05 0)
(3.59655e-06 -1.82399e-05 0)
(4.32173e-06 -1.73138e-05 0)
(4.73397e-06 -1.71785e-05 0)
(4.86802e-06 -1.76202e-05 0)
(4.76979e-06 -1.85921e-05 -6.74693e-20)
(4.49036e-06 -1.99874e-05 6.72022e-20)
(4.15945e-06 -2.17357e-05 1.35271e-19)
(4.0046e-06 -2.3906e-05 -1.34591e-19)
(4.11728e-06 -2.66587e-05 -1.35437e-19)
(4.58666e-06 -2.99182e-05 1.34614e-19)
(5.71007e-06 -3.37494e-05 0)
(7.69752e-06 -3.80773e-05 -1.35104e-19)
(1.04447e-05 -4.2461e-05 -6.96019e-22)
(1.34085e-05 -4.61504e-05 1.33685e-19)
(1.56879e-05 -4.83046e-05 0)
(1.62876e-05 -4.79977e-05 2.65418e-19)
(1.44993e-05 -4.44886e-05 -2.6291e-19)
(1.06853e-05 -3.88835e-05 0)
(4.72072e-06 -3.09157e-05 0)
(-3.76368e-06 -1.98445e-05 -2.51002e-19)
(-9.6939e-06 -9.72924e-06 2.48256e-19)
(-1.66543e-05 3.88979e-06 0)
(1.51186e-06 3.61395e-06 0)
(5.62699e-07 -2.93449e-05 0)
(3.17739e-06 -2.32334e-05 0)
(4.14605e-06 -1.94068e-05 0)
(5.2039e-06 -1.84273e-05 0)
(5.96571e-06 -1.82782e-05 0)
(6.45601e-06 -1.87547e-05 0)
(6.68478e-06 -1.97422e-05 0)
(6.66567e-06 -2.10649e-05 0)
(6.46066e-06 -2.25819e-05 0)
(6.13449e-06 -2.42753e-05 0)
(5.82649e-06 -2.64331e-05 1.32831e-19)
(5.82005e-06 -2.91081e-05 -1.32068e-19)
(6.4865e-06 -3.24662e-05 0)
(8.28407e-06 -3.67037e-05 0)
(1.1389e-05 -4.15999e-05 0)
(1.52055e-05 -4.66371e-05 0)
(1.87691e-05 -5.10152e-05 0)
(2.12486e-05 -5.35438e-05 0)
(2.1029e-05 -5.25217e-05 0)
(1.75967e-05 -4.72569e-05 0)
(1.16699e-05 -3.89657e-05 0)
(3.09605e-06 -2.80693e-05 2.50066e-19)
(-4.15739e-06 -1.67812e-05 -2.47468e-19)
(-1.43639e-05 9.53828e-08 0)
(2.29155e-06 3.58862e-06 0)
(6.1682e-07 -3.16012e-05 0)
(3.47219e-06 -2.47703e-05 0)
(4.83757e-06 -2.10207e-05 0)
(6.3941e-06 -2.01583e-05 0)
(7.73108e-06 -2.01931e-05 -6.40289e-20)
(8.85495e-06 -2.09037e-05 6.38654e-20)
(9.73322e-06 -2.20893e-05 0)
(1.03391e-05 -2.34901e-05 0)
(1.0663e-05 -2.48949e-05 1.29418e-19)
(1.05263e-05 -2.61972e-05 -2.58596e-19)
(1.01292e-05 -2.76846e-05 -9.40785e-22)
(9.90908e-06 -2.93703e-05 1.29346e-19)
(1.01444e-05 -3.15128e-05 0)
(1.15222e-05 -3.46021e-05 0)
(1.42985e-05 -3.88855e-05 -1.30537e-19)
(1.79064e-05 -4.42177e-05 1.2959e-19)
(2.19421e-05 -5.00847e-05 2.60336e-19)
(2.5849e-05 -5.52054e-05 1.25024e-21)
(2.8239e-05 -5.79185e-05 -2.57244e-19)
(2.72119e-05 -5.57794e-05 -2.56021e-19)
(2.14252e-05 -4.80039e-05 2.53632e-19)
(1.18248e-05 -3.61718e-05 -2.48937e-19)
(3.18887e-06 -2.42609e-05 2.46472e-19)
(-1.02238e-05 -4.3913e-06 0)
(3.82732e-06 3.89106e-06 0)
(6.63602e-07 -3.38288e-05 0)
(3.75811e-06 -2.66202e-05 0)
(5.619e-06 -2.31756e-05 0)
(7.82784e-06 -2.26605e-05 0)
(9.95903e-06 -2.3134e-05 0)
(1.19934e-05 -2.43347e-05 0)
(1.38538e-05 -2.59766e-05 0)
(1.54679e-05 -2.77062e-05 0)
(1.67286e-05 -2.92384e-05 1.26248e-19)
(1.72731e-05 -3.03856e-05 -1.25714e-19)
(1.7423e-05 -3.12514e-05 0)
(1.76195e-05 -3.18637e-05 0)
(1.78544e-05 -3.24774e-05 0)
(1.8663e-05 -3.35748e-05 0)
(2.03928e-05 -3.5749e-05 0)
(2.29782e-05 -3.95837e-05 0)
(2.67189e-05 -4.53447e-05 0)
(3.13822e-05 -5.18053e-05 2.55883e-19)
(3.56125e-05 -5.76281e-05 -2.53798e-19)
(3.7375e-05 -6.00619e-05 0)
(3.41184e-05 -5.62492e-05 0)
(2.43415e-05 -4.50342e-05 0)
(1.38368e-05 -3.1153e-05 0)
(-3.1239e-06 -8.24383e-06 0)
(6.43697e-06 5.55107e-06 0)
(6.91399e-07 -3.59745e-05 0)
(4.00064e-06 -2.87962e-05 0)
(6.42853e-06 -2.59314e-05 0)
(9.41825e-06 -2.60443e-05 0)
(1.25404e-05 -2.72575e-05 0)
(1.57283e-05 -2.92522e-05 0)
(1.88641e-05 -3.1702e-05 0)
(2.18444e-05 -3.41678e-05 0)
(2.44624e-05 -3.62317e-05 0)
(2.63408e-05 -3.7536e-05 0)
(2.78131e-05 -3.80456e-05 -1.23972e-19)
(2.90788e-05 -3.76508e-05 1.23365e-19)
(2.99735e-05 -3.65775e-05 0)
(3.09741e-05 -3.53488e-05 0)
(3.19756e-05 -3.45757e-05 -1.25651e-19)
(3.28226e-05 -3.4859e-05 1.24829e-19)
(3.51751e-05 -3.73515e-05 2.51991e-19)
(3.92622e-05 -4.25772e-05 -2.5015e-19)
(4.40681e-05 -5.00986e-05 0)
(4.81651e-05 -5.66002e-05 0)
(4.80678e-05 -5.86511e-05 0)
(4.14251e-05 -5.25084e-05 -2.46276e-19)
(3.04388e-05 -3.90394e-05 4.8623e-19)
(8.07119e-06 -1.14546e-05 -2.39955e-19)
(1.0699e-05 9.29095e-06 0)
(6.8922e-07 -3.79784e-05 0)
(4.16636e-06 -3.12793e-05 0)
(7.19713e-06 -2.92933e-05 0)
(1.1055e-05 -3.03538e-05 0)
(1.53159e-05 -3.26764e-05 0)
(1.98007e-05 -3.58696e-05 0)
(2.43527e-05 -3.94253e-05 5.92098e-20)
(2.89659e-05 -4.286e-05 -5.90318e-20)
(3.34903e-05 -4.57558e-05 1.19446e-19)
(3.74158e-05 -4.76921e-05 -1.1899e-19)
(4.10677e-05 -4.82383e-05 1.20623e-19)
(4.44566e-05 -4.76235e-05 -1.20058e-19)
(4.70026e-05 -4.54658e-05 0)
(4.88209e-05 -4.21006e-05 1.22399e-19)
(4.98883e-05 -3.81295e-05 -1.21681e-19)
(5.0487e-05 -3.41226e-05 0)
(5.12855e-05 -3.10764e-05 0)
(5.23771e-05 -3.0755e-05 2.47835e-19)
(5.5687e-05 -3.46098e-05 1.95749e-21)
(6.04854e-05 -4.23175e-05 -2.46093e-19)
(6.33962e-05 -5.07506e-05 0)
(6.12817e-05 -5.24869e-05 2.44826e-19)
(5.31764e-05 -4.49687e-05 -2.42672e-19)
(2.66362e-05 -1.41467e-05 0)
(1.77772e-05 1.68073e-05 2.0049e-19)
(6.46463e-07 -3.97872e-05 0)
(4.24295e-06 -3.40174e-05 0)
(7.86318e-06 -3.31883e-05 0)
(1.25719e-05 -3.54973e-05 0)
(1.7974e-05 -3.9203e-05 0)
(2.39418e-05 -4.3836e-05 0)
(3.02886e-05 -4.87576e-05 0)
(3.68727e-05 -5.34508e-05 0)
(4.34812e-05 -5.75369e-05 0)
(5.00358e-05 -6.07768e-05 0)
(5.63391e-05 -6.22776e-05 0)
(6.22764e-05 -6.2163e-05 0)
(6.76342e-05 -6.00899e-05 0)
(7.19759e-05 -5.56374e-05 0)
(7.50848e-05 -4.8951e-05 0)
(7.67831e-05 -4.05361e-05 0)
(7.72711e-05 -3.13344e-05 0)
(7.71202e-05 -2.28997e-05 0)
(7.72306e-05 -1.75014e-05 0)
(7.78235e-05 -1.90052e-05 0)
(8.12161e-05 -2.68997e-05 0)
(8.49542e-05 -3.69719e-05 0)
(8.34704e-05 -4.07388e-05 0)
(5.47462e-05 -1.31238e-05 0)
(2.93958e-05 3.25858e-05 0)
(5.85215e-07 -4.12743e-05 -1.2363e-20)
(4.28801e-06 -3.69228e-05 -1.37467e-20)
(8.44523e-06 -3.76201e-05 2.74355e-20)
(1.39814e-05 -4.14222e-05 -5.51028e-20)
(2.06263e-05 -4.66575e-05 5.50163e-20)
(2.81601e-05 -5.28606e-05 0)
(3.63054e-05 -5.93853e-05 -5.55986e-20)
(4.48632e-05 -6.56147e-05 -5.61889e-20)
(5.36286e-05 -7.11381e-05 2.23409e-19)
(6.28304e-05 -7.56415e-05 -1.11729e-19)
(7.24254e-05 -7.87608e-05 -1.13278e-19)
(8.18612e-05 -7.98127e-05 1.12795e-19)
(9.10899e-05 -7.85037e-05 1.14716e-19)
(9.97266e-05 -7.44108e-05 -2.29678e-19)
(0.000106879 -6.73343e-05 -1.47692e-21)
(0.000112206 -5.66236e-05 -1.18848e-19)
(0.000115679 -4.26207e-05 2.33195e-19)
(0.000116438 -2.61498e-05 2.3816e-19)
(0.000113734 -9.162e-06 -4.76323e-19)
(0.000111047 3.05227e-06 2.38083e-19)
(0.000112193 7.63256e-06 0)
(0.000116465 2.69449e-07 -2.42357e-19)
(0.000120223 -1.44473e-05 4.82098e-19)
(9.43617e-05 3.19691e-06 -2.39634e-19)
(5.11066e-05 7.16358e-05 -2.06213e-19)
(5.03844e-07 -4.24082e-05 0)
(4.2267e-06 -3.99999e-05 0)
(8.90033e-06 -4.2621e-05 0)
(1.53618e-05 -4.80922e-05 0)
(2.32394e-05 -5.50227e-05 0)
(3.22532e-05 -6.29307e-05 0)
(4.22443e-05 -7.11231e-05 0)
(5.29816e-05 -7.89973e-05 0)
(6.43083e-05 -8.5982e-05 0)
(7.63414e-05 -9.15397e-05 0)
(8.91444e-05 -9.55824e-05 0)
(0.000102599 -9.78204e-05 0)
(0.000116323 -9.79225e-05 0)
(0.000129512 -9.55151e-05 0)
(0.000142301 -8.97791e-05 0)
(0.000154462 -8.03369e-05 0)
(0.000164474 -6.68965e-05 0)
(0.000170888 -4.8775e-05 0)
(0.000172569 -2.46264e-05 2.34221e-19)
(0.000172167 4.26282e-06 -2.32681e-19)
(0.00017129 3.06138e-05 0)
(0.00016973 4.73605e-05 0)
(0.00017376 4.73339e-05 0)
(0.000160641 7.10684e-05 0)
(9.81014e-05 0.000191879 0)
(4.52714e-07 -4.34052e-05 0)
(4.10249e-06 -4.35172e-05 0)
(9.32339e-06 -4.82383e-05 0)
(1.67495e-05 -5.5619e-05 0)
(2.58057e-05 -6.44395e-05 0)
(3.63363e-05 -7.41193e-05 0)
(4.81217e-05 -8.39782e-05 0)
(6.10568e-05 -9.34531e-05 0)
(7.52302e-05 -0.00010197 0)
(9.06192e-05 -0.000109052 0)
(0.000107001 -0.000114477 1.05519e-19)
(0.000124064 -0.00011802 -1.05106e-19)
(0.000141708 -0.000119541 0)
(0.000160402 -0.000118947 0)
(0.0001797 -0.000115589 0)
(0.00019829 -0.000109333 0)
(0.00021615 -9.93205e-05 0)
(0.000233956 -8.5348e-05 0)
(0.000251627 -6.72116e-05 0)
(0.000266129 -4.22997e-05 0)
(0.000275342 -1.12792e-05 0)
(0.000283213 2.17364e-05 2.41157e-19)
(0.000301277 4.21905e-05 -2.39378e-19)
(0.00032133 6.90167e-05 0)
(7.75843e-05 0.000453654 0)
(3.56151e-07 -4.48092e-05 0)
(4.1087e-06 -4.74081e-05 0)
(9.90541e-06 -5.3783e-05 0)
(1.8118e-05 -6.23616e-05 0)
(2.82693e-05 -7.18988e-05 0)
(4.01924e-05 -8.18243e-05 0)
(5.37355e-05 -9.15346e-05 0)
(6.88979e-05 -0.000100389 0)
(8.57786e-05 -0.000108013 0)
(0.000104291 -0.000114174 0)
(0.000124284 -0.000118682 0)
(0.000145725 -0.000121222 0)
(0.000168659 -0.000121407 0)
(0.000193144 -0.000118912 0)
(0.000219008 -0.000113855 0)
(0.000246878 -0.000105596 0)
(0.000277192 -9.33812e-05 0)
(0.000309045 -7.73157e-05 0)
(0.000342883 -5.70931e-05 0)
(0.000380685 -3.2535e-05 0)
(0.000426757 5.32055e-07 0)
(0.000491642 4.735e-05 0)
(0.000597842 0.000108528 0)
(0.000799679 0.000185762 0)
(0.00136053 0.000617497 0)
(3.3447e-07 -4.67914e-05 0)
(4.29773e-06 -5.21329e-05 0)
(1.05623e-05 -6.07786e-05 0)
(1.94538e-05 -7.12859e-05 0)
(3.05102e-05 -8.24457e-05 0)
(4.35513e-05 -9.37421e-05 0)
(5.84949e-05 -0.000104577 0)
(7.53125e-05 -0.000114425 0)
(9.39596e-05 -0.000123012 0)
(0.000114392 -0.000130189 0)
(0.000136588 -0.000135758 0)
(0.000160576 -0.000139489 0)
(0.000186442 -0.000141178 0)
(0.000214361 -0.000140652 0)
(0.000244596 -0.000137761 0)
(0.000277548 -0.000132165 0)
(0.000313498 -0.000124466 0)
(0.000353236 -0.000114997 0)
(0.00039701 -0.00010327 0)
(0.000445716 -8.97489e-05 0)
(0.000504068 -7.37327e-05 0)
(0.000578905 -5.59232e-05 0)
(0.000679569 -4.20845e-05 0)
(0.000806102 -5.42492e-05 0)
(0.000876238 -0.000140724 0)
(3.02718e-07 -4.89434e-05 0)
(4.44362e-06 -5.74011e-05 0)
(1.11025e-05 -6.86698e-05 0)
(2.05961e-05 -8.1498e-05 0)
(3.24593e-05 -9.47531e-05 0)
(4.65147e-05 -0.00010796 0)
(6.266e-05 -0.000120574 0)
(8.08363e-05 -0.000132187 0)
(0.000101009 -0.000142528 0)
(0.000123167 -0.00015139 0)
(0.000147336 -0.000158581 0)
(0.000173576 -0.000163904 0)
(0.000202001 -0.000167177 0)
(0.000232807 -0.000168246 0)
(0.000266284 -0.000167044 0)
(0.000302754 -0.000163623 0)
(0.000342561 -0.000158305 0)
(0.000386302 -0.000151455 0)
(0.00043422 -0.000144105 0)
(0.000487227 -0.000136605 0)
(0.000546577 -0.000129356 0)
(0.000613056 -0.000124178 0)
(0.000684858 -0.000123903 0)
(0.000747004 -0.000137263 0)
(0.000745996 -0.000169174 0)
(2.69246e-07 -5.11519e-05 0)
(4.52856e-06 -6.29697e-05 0)
(1.14954e-05 -7.7083e-05 0)
(2.14732e-05 -9.24743e-05 0)
(3.39889e-05 -0.000108077 0)
(4.88574e-05 -0.000123483 0)
(6.59633e-05 -0.000138217 0)
(8.52414e-05 -0.000151903 0)
(0.00010666 -0.000164288 0)
(0.000130222 -0.000175189 0)
(0.000155959 -0.000184451 0)
(0.000183944 -0.000191926 0)
(0.000214294 -0.000197477 0)
(0.00024718 -0.000200999 0)
(0.000282824 -0.000202459 0)
(0.000321469 -0.000201946 0)
(0.000363365 -0.000199673 0)
(0.000408742 -0.000196036 0)
(0.000457524 -0.000191806 0)
(0.000509482 -0.000187478 0)
(0.000563777 -0.000183982 0)
(0.000617893 -0.000181259 0)
(0.000665679 -0.000177918 0)
(0.000693538 -0.000169151 0)
(0.000678496 -0.000138919 0)
(2.3001e-07 -5.3364e-05 0)
(4.54351e-06 -6.87161e-05 0)
(1.17169e-05 -8.58436e-05 0)
(2.20444e-05 -0.000103964 0)
(3.50414e-05 -0.000122078 0)
(5.05188e-05 -0.000139848 0)
(6.83507e-05 -0.000156851 0)
(8.84613e-05 -0.000172748 0)
(0.000110814 -0.000187324 0)
(0.000135404 -0.000200433 0)
(0.000162256 -0.000211956 0)
(0.000191429 -0.000221785 0)
(0.000223015 -0.000229827 0)
(0.000257135 -0.000236013 0)
(0.000293927 -0.000240326 0)
(0.000333513 -0.000242815 0)
(0.000375952 -0.000243613 0)
(0.000421159 -0.000242965 0)
(0.000468699 -0.000241208 0)
(0.0005176 -0.000238464 0)
(0.000565908 -0.000234532 0)
(0.000610139 -0.000227793 0)
(0.000644718 -0.000213758 0)
(0.00066144 -0.000182504 0)
(0.000652722 -0.000115417 0)
(1.84794e-07 -5.55444e-05 0)
(4.48945e-06 -7.45536e-05 0)
(1.17738e-05 -9.48238e-05 0)
(2.23166e-05 -0.00011579 0)
(3.56325e-05 -0.000136531 0)
(5.15231e-05 -0.000156766 0)
(6.98513e-05 -0.000176125 0)
(9.05302e-05 -0.000194314 0)
(0.000113508 -0.000211151 0)
(0.000138764 -0.000226526 0)
(0.000166306 -0.00024035 0)
(0.000196162 -0.00025254 0)
(0.00022838 -0.000263024 0)
(0.000263018 -0.000271746 0)
(0.000300117 -0.000278673 0)
(0.000339673 -0.000283797 0)
(0.000381572 -0.000287127 0)
(0.0004255 -0.000288655 0)
(0.000470789 -0.000288276 0)
(0.000516222 -0.000285527 0)
(0.000559751 -0.00027919 0)
(0.000598288 -0.000266369 0)
(0.000627959 -0.000241264 0)
(0.000645273 -0.000193602 0)
(0.000649773 -0.000108684 0)
(1.33801e-07 -5.76595e-05 0)
(4.37136e-06 -8.0404e-05 0)
(1.16747e-05 -0.000103911 0)
(2.23089e-05 -0.000127814 0)
(3.57871e-05 -0.000151265 0)
(5.19049e-05 -0.00017404 0)
(7.05135e-05 -0.000195818 0)
(9.15099e-05 -0.000216347 0)
(0.000114827 -0.00023548 0)
(0.000140423 -0.000253133 0)
(0.000168277 -0.000269239 0)
(0.000198383 -0.000283731 0)
(0.000230739 -0.000296542 0)
(0.000265337 -0.000307604 0)
(0.000302131 -0.000316845 0)
(0.000341012 -0.000324172 0)
(0.000381743 -0.000329447 0)
(0.000423893 -0.000332411 0)
(0.000466724 -0.000332568 0)
(0.000509085 -0.000328943 0)
(0.000549304 -0.000319687 0)
(0.000585267 -0.000301398 0)
(0.000615001 -0.000268289 0)
(0.000637899 -0.000211558 0)
(0.000656186 -0.000120523 0)
(7.77128e-08 -5.96779e-05 0)
(4.19568e-06 -8.61983e-05 0)
(1.14385e-05 -0.000112999 0)
(2.20489e-05 -0.000139898 0)
(3.55486e-05 -0.000166115 0)
(5.17248e-05 -0.000191475 0)
(7.04175e-05 -0.000215705 0)
(9.15105e-05 -0.000238591 0)
(0.000114916 -0.000260016 0)
(0.00014057 -0.000279918 0)
(0.000168423 -0.000298244 0)
(0.000198433 -0.000314936 0)
(0.000230553 -0.000329919 0)
(0.000264718 -0.000343097 0)
(0.000300819 -0.000354347 0)
(0.000338676 -0.000363485 0)
(0.000377993 -0.000370227 0)
(0.000418315 -0.000374108 0)
(0.000458971 -0.00037435 0)
(0.000499041 -0.000369655 0)
(0.000537389 -0.000357895 0)
(0.000572867 -0.00033569 0)
(0.000604888 -0.000298007 0)
(0.000634408 -0.000238152 0)
(0.000664737 -0.000148458 0)
(1.77218e-08 -6.15725e-05 0)
(3.97293e-06 -9.18756e-05 0)
(1.10849e-05 -0.000121997 0)
(2.15749e-05 -0.000151924 0)
(3.49717e-05 -0.000180936 0)
(5.10602e-05 -0.000208901 0)
(6.96708e-05 -0.000235591 0)
(9.06713e-05 -0.000260826 0)
(0.000113958 -0.000284514 0)
(0.000139444 -0.000306611 0)
(0.000167055 -0.000327074 0)
(0.000196715 -0.000345844 0)
(0.000228344 -0.000362832 0)
(0.000261836 -0.000377912 0)
(0.000297045 -0.000390905 0)
(0.000333759 -0.000401548 0)
(0.000371682 -0.000409439 0)
(0.000410401 -0.000413969 0)
(0.000449387 -0.000414199 0)
(0.000488012 -0.0004087 0)
(0.000525649 -0.000395351 0)
(0.000561909 -0.000371111 0)
(0.000597096 -0.0003319 0)
(0.000632878 -0.000272816 0)
(0.000672908 -0.000188847 0)
(-4.4927e-08 -6.33215e-05 0)
(3.71239e-06 -9.73842e-05 0)
(1.06398e-05 -0.000130828 0)
(2.09263e-05 -0.00016379 0)
(3.41193e-05 -0.000195603 0)
(4.99998e-05 -0.000226174 0)
(6.83904e-05 -0.000255314 0)
(8.91489e-05 -0.000282873 0)
(0.000112154 -0.000308782 0)
(0.000137303 -0.000333009 0)
(0.000164498 -0.000355518 0)
(0.000193642 -0.000376246 0)
(0.000224629 -0.00039509 0)
(0.000257334 -0.000411894 0)
(0.000291596 -0.000426435 0)
(0.000327208 -0.000438384 0)
(0.000363907 -0.000447267 0)
(0.000401372 -0.000452393 0)
(0.00043924 -0.000452769 0)
(0.000477166 -0.000446984 0)
(0.000514939 -0.000433096 0)
(0.000552696 -0.000408538 0)
(0.000591264 -0.000370148 0)
(0.000632577 -0.000314452 0)
(0.000680071 -0.000238332 0)
(-1.09693e-07 -6.491e-05 0)
(3.42586e-06 -0.000102684 0)
(1.01259e-05 -0.00013943 0)
(2.01472e-05 -0.000175414 0)
(3.30548e-05 -0.000210017 0)
(4.86325e-05 -0.000243181 0)
(6.66983e-05 -0.000274748 0)
(8.70993e-05 -0.000304598 0)
(0.000109706 -0.000332678 0)
(0.000134398 -0.000358968 0)
(0.000161066 -0.000383439 0)
(0.000189599 -0.000406023 0)
(0.000219878 -0.000426605 0)
(0.000251772 -0.000445007 0)
(0.000285127 -0.000460972 0)
(0.000319765 -0.000474138 0)
(0.00035548 -0.000483991 0)
(0.000392056 -0.000489821 0)
(0.000429298 -0.000490659 0)
(0.0004671 -0.000485204 0)
(0.000505557 -0.000471778 0)
(0.000545144 -0.000448313 0)
(0.000586947 -0.000412442 0)
(0.000632923 -0.000361782 0)
(0.000686081 -0.000294442 0)
(-1.75335e-07 -6.6331e-05 0)
(3.12281e-06 -0.000107746 0)
(9.56934e-06 -0.000147755 0)
(1.92767e-05 -0.000186733 0)
(3.18401e-05 -0.000224103 0)
(4.70453e-05 -0.000259833 0)
(6.47076e-05 -0.000293799 0)
(8.46715e-05 -0.0003259 0)
(0.000106797 -0.000356103 0)
(0.00013096 -0.000384399 0)
(0.00015704 -0.000410762 0)
(0.000184921 -0.000435123 0)
(0.000214482 -0.000457361 0)
(0.0002456 -0.000477286 0)
(0.000278142 -0.000494626 0)
(0.000311968 -0.000509004 0)
(0.000346941 -0.000519906 0)
(0.00038295 -0.000526648 0)
(0.000419946 -0.000528335 0)
(0.000458007 -0.000523829 0)
(0.000497441 -0.00051174 0)
(0.000538914 -0.000490458 0)
(0.000583605 -0.000458272 0)
(0.000633358 -0.000413603 0)
(0.000690752 -0.000355392 0)
(-2.36354e-07 -6.75825e-05 0)
(2.8178e-06 -0.000112553 0)
(8.98809e-06 -0.000155771 0)
(1.83528e-05 -0.000197703 0)
(3.05304e-05 -0.000237805 0)
(4.53147e-05 -0.00027607 0)
(6.25226e-05 -0.000312399 0)
(8.19949e-05 -0.000346715 0)
(0.000103592 -0.000378998 0)
(0.000127185 -0.000409251 0)
(0.000152652 -0.000437454 0)
(0.000179877 -0.000463541 0)
(0.000208747 -0.000487389 0)
(0.000239154 -0.000508809 0)
(0.000270991 -0.000527528 0)
(0.000304164 -0.000543178 0)
(0.000338605 -0.000555271 0)
(0.000374293 -0.000563178 0)
(0.000411296 -0.000566113 0)
(0.000449826 -0.000563116 0)
(0.000490323 -0.000553076 0)
(0.00053354 -0.000534783 0)
(0.000580652 -0.000507038 0)
(0.000633327 -0.000468851 0)
(0.000693742 -0.000419713 0)
(-2.88072e-07 -6.86628e-05 0)
(2.52049e-06 -0.000117097 0)
(8.4019e-06 -0.000163461 0)
(1.74049e-05 -0.000208296 0)
(2.91738e-05 -0.000251089 0)
(4.35082e-05 -0.000291852 0)
(6.02287e-05 -0.000330509 0)
(7.91807e-05 -0.000367003 0)
(0.000100223 -0.000401331 0)
(0.00012323 -0.000433505 0)
(0.000148082 -0.000463513 0)
(0.00017467 -0.000491297 0)
(0.000202892 -0.000516741 0)
(0.000232659 -0.000539663 0)
(0.000263895 -0.000559806 0)
(0.00029655 -0.000576826 0)
(0.000330614 -0.00059028 0)
(0.000366141 -0.000599615 0)
(0.000403284 -0.000604162 0)
(0.000442345 -0.000603144 0)
(0.000483831 -0.000595702 0)
(0.00052852 -0.000580954 0)
(0.000577519 -0.000558098 0)
(0.000632302 -0.000526565 0)
(0.000694689 -0.000486213 0)
(-3.30123e-07 -6.95738e-05 0)
(2.23851e-06 -0.00012138 0)
(7.82323e-06 -0.000170817 0)
(1.64603e-05 -0.000218498 0)
(2.78086e-05 -0.000263935 0)
(4.16782e-05 -0.000307156 0)
(5.78973e-05 -0.000348105 0)
(7.63138e-05 -0.000386746 0)
(9.67943e-05 -0.00042309 0)
(0.000119215 -0.000457159 0)
(0.000143464 -0.000488954 0)
(0.000169442 -0.000518428 0)
(0.000197061 -0.000545475 0)
(0.000226252 -0.000569932 0)
(0.000256968 -0.000591566 0)
(0.000289199 -0.00061007 0)
(0.000322982 -0.000625057 0)
(0.000358425 -0.00063606 0)
(0.00039574 -0.000642531 0)
(0.000435278 -0.000643859 0)
(0.00047757 -0.000639403 0)
(0.000523371 -0.00062855 0)
(0.000573693 -0.000610797 0)
(0.000629813 -0.000585871 0)
(0.000693244 -0.000553869 0)
(-3.65766e-07 -7.03213e-05 0)
(1.97201e-06 -0.000125408 0)
(7.26622e-06 -0.000177841 0)
(1.55376e-05 -0.000228306 0)
(2.64651e-05 -0.000276336 0)
(3.98669e-05 -0.000321972 0)
(5.55792e-05 -0.00036518 0)
(7.34597e-05 -0.000405939 0)
(9.33787e-05 -0.000444275 0)
(0.000115222 -0.000480225 0)
(0.000138885 -0.000513799 0)
(0.000164279 -0.000544966 0)
(0.000191332 -0.00057364 0)
(0.000219994 -0.000599677 0)
(0.000250245 -0.000622878 0)
(0.000282103 -0.00064298 0)
(0.000315641 -0.000659659 0)
(0.000351006 -0.000672532 0)
(0.000388442 -0.000681167 0)
(0.000428317 -0.000685103 0)
(0.000471156 -0.000683882 0)
(0.000517664 -0.000677102 0)
(0.000568741 -0.000664484 0)
(0.00062548 -0.000645965 0)
(0.000689129 -0.00062179 0)
(-3.98828e-07 -7.09177e-05 0)
(1.72244e-06 -0.000129189 0)
(6.73718e-06 -0.000184539 0)
(1.46528e-05 -0.000237722 0)
(2.51643e-05 -0.000288293 0)
(3.8102e-05 -0.000336303 0)
(5.33129e-05 -0.000381734 0)
(7.06605e-05 -0.000424585 0)
(9.00262e-05 -0.000464895 0)
(0.000111302 -0.000502714 0)
(0.000134394 -0.000538067 0)
(0.000159225 -0.000570941 0)
(0.000185737 -0.000601268 0)
(0.000213897 -0.000628936 0)
(0.000243703 -0.000653777 0)
(0.000275198 -0.000675578 0)
(0.000308478 -0.000694078 0)
(0.00034371 -0.000708976 0)
(0.00038115 -0.000719946 0)
(0.000421165 -0.000726654 0)
(0.000464248 -0.000728794 0)
(0.000511038 -0.000726127 0)
(0.00056232 -0.00071854 0)
(0.000619016 -0.000706114 0)
(0.000682147 -0.000689185 0)
(-4.2872e-07 -7.13782e-05 0)
(1.49044e-06 -0.000132735 0)
(6.24321e-06 -0.000190921 0)
(1.38133e-05 -0.000246756 0)
(2.392e-05 -0.000299815 0)
(3.64032e-05 -0.000350154 0)
(5.11192e-05 -0.000397774 0)
(6.79435e-05 -0.000442691 0)