/*--------------------------------*- C++ -*----------------------------------*\
  =========                 |
  \\      /  F ield         | OpenFOAM: The Open Source CFD Toolbox
   \\    /   O peration     | Website:  https://openfoam.org
    \\  /    A nd           | Version:  13
     \\/     M anipulation  |
\*---------------------------------------------------------------------------*/
FoamFile
{
    format      ascii;
    class       volScalarField;
    location    "1";
    object      p;
}
// * * * * * * * * * * * * * * * * * * * * * * * * * * * * * * * * * * * * * //

dimensions      [0 2 -2 0 0 0 0];

internalField   nonuniform List<scalar> 
6440
(
0.0165009
0.0165142
0.0167107
0.0170767
0.0176111
0.0183067
0.0191642
0.0201823
0.0213562
0.022676
0.0241258
0.0256834
0.0273217
0.0290106
0.0307184
0.0324126
0.0340642
0.0356508
0.0371577
0.0385774
0.0399068
0.0411407
0.0422326
0.0431701
0.0438918
0.015372
0.0153821
0.0154959
0.0157258
0.0160838
0.0165701
0.0171946
0.0179671
0.0188961
0.0199887
0.0212478
0.0226716
0.0242541
0.0259856
0.0278522
0.0298332
0.0318991
0.0340153
0.0361434
0.0382404
0.0402591
0.0421495
0.0438103
0.045149
0.0461743
0.0140694
0.0141022
0.0141735
0.0143077
0.014525
0.0148324
0.0152459
0.0157841
0.0164672
0.0173161
0.0183504
0.0195867
0.021037
0.0227059
0.0245901
0.0266747
0.0289323
0.0313222
0.0337904
0.0362694
0.0386815
0.0409421
0.0429042
0.0443244
0.0451746
0.0129759
0.0130289
0.0130858
0.0131742
0.0133155
0.0135192
0.0138032
0.0141892
0.0147025
0.0153702
0.0162206
0.0172803
0.0185716
0.0201095
0.0218977
0.0239263
0.0261688
0.0285811
0.0310997
0.0336446
0.0361252
0.0384474
0.0404596
0.0418207
0.042493
0.012155
0.0122174
0.0122692
0.0123363
0.0124377
0.0125831
0.0127898
0.0130791
0.0134769
0.0140117
0.014714
0.0156137
0.0167366
0.0181013
0.0197153
0.0215711
0.0236439
0.02589
0.0282446
0.0306296
0.0329611
0.0351563
0.0370838
0.038358
0.0389291
0.0115657
0.0116278
0.011676
0.0117319
0.0118109
0.011922
0.0120803
0.0123051
0.0126199
0.0130512
0.0136278
0.0143779
0.0153265
0.0164921
0.0178825
0.0194915
0.0212973
0.0232609
0.0253249
0.0274232
0.0294886
0.0314581
0.0332292
0.0344064
0.0349151
0.0111464
0.0112017
0.0112453
0.0112937
0.0113589
0.0114487
0.0115754
0.0117552
0.0120078
0.0123556
0.012823
0.0134342
0.0142106
0.0151676
0.016312
0.0176395
0.0191327
0.02076
0.022477
0.0242337
0.0259827
0.0276815
0.0292577
0.0303285
0.0307894
0.010844
0.0108899
0.010928
0.0109709
0.0110274
0.0111035
0.011209
0.0113564
0.0115607
0.0118396
0.0122118
0.0126963
0.013309
0.0140621
0.0149611
0.0160034
0.0171767
0.0184584
0.0198178
0.0212222
0.0226426
0.0240574
0.0254212
0.0263782
0.0267965
0.0106187
0.0106548
0.0106877
0.0107264
0.0107771
0.0108444
0.010935
0.0110579
0.0112238
0.0114449
0.0117343
0.0121045
0.0125666
0.0131288
0.0137953
0.0145655
0.0154332
0.0163858
0.0174054
0.0184748
0.0195814
0.0207212
0.021872
0.0227136
0.0230937
0.0104423
0.0104695
0.0104977
0.0105332
0.0105799
0.0106408
0.0107201
0.0108235
0.0109575
0.011129
0.0113453
0.0116136
0.0119402
0.0123301
0.012786
0.0133089
0.0138973
0.014548
0.0152563
0.0160191
0.0168396
0.017729
0.0186837
0.01942
0.0197723
0.0102956
0.0103153
0.0103394
0.010372
0.0104153
0.0104707
0.0105405
0.0106271
0.0107332
0.0108613
0.011014
0.0111935
0.0114017
0.0116404
0.0119114
0.0122169
0.0125602
0.0129458
0.0133807
0.0138748
0.0144444
0.0151137
0.0158947
0.0165421
0.0168824
0.0101656
0.0101793
0.0101998
0.0102294
0.0102692
0.0103192
0.0103797
0.0104509
0.0105321
0.0106223
0.01072
0.0108234
0.0109308
0.0110412
0.0111557
0.0112775
0.0114135
0.0115751
0.0117789
0.0120463
0.0124047
0.0128889
0.0135233
0.0141012
0.0144463
0.0100442
0.0100532
0.0100702
0.0100966
0.0101322
0.0101762
0.0102273
0.0102836
0.0103422
0.0103991
0.0104498
0.0104893
0.0105131
0.0105182
0.0105046
0.0104766
0.0104442
0.0104241
0.0104404
0.0105245
0.0107137
0.0110507
0.0115685
0.0120976
0.0124629
0.00992672
0.00993186
0.00994555
0.00996824
0.00999904
0.0100362
0.0100774
0.0101192
0.0101569
0.0101846
0.0101953
0.010182
0.0101382
0.0100593
0.00994484
0.00979991
0.00963697
0.00947701
0.00935014
0.0092951
0.0093568
0.00958476
0.0100166
0.0105162
0.0109139
0.00981078
0.00981288
0.00982327
0.00984181
0.00986704
0.00989661
0.00992733
0.00995475
0.00997298
0.00997475
0.00995189
0.00989573
0.00979858
0.00965526
0.00946516
0.00923433
0.00897723
0.00871802
0.00849107
0.00834018
0.00831551
0.00846999
0.00884397
0.00933025
0.00976677
0.00969583
0.00969549
0.00970256
0.00971655
0.00973558
0.00975683
0.00977656
0.00978965
0.00978953
0.00976836
0.00971712
0.00962669
0.0094891
0.00929914
0.00905682
0.00876919
0.00845231
0.00813241
0.0078463
0.0076404
0.0075671
0.00767987
0.00801897
0.00850195
0.00897742
0.00958237
0.00958006
0.0095838
0.00959292
0.00960524
0.00961761
0.00962594
0.00962477
0.00960739
0.00956567
0.00949072
0.0093737
0.00920719
0.00898704
0.0087142
0.00839683
0.00805211
0.00770726
0.00739958
0.00717532
0.00708593
0.00718244
0.00750219
0.00798429
0.00849204
0.00947147
0.00946754
0.009468
0.00947207
0.00947732
0.00948043
0.0094771
0.00946191
0.00942819
0.0093682
0.00927376
0.00913726
0.00895279
0.00871773
0.00843449
0.00811248
0.00776941
0.00743205
0.00713611
0.00692472
0.00684496
0.00694243
0.00724925
0.007724
0.00825254
0.0093644
0.0093591
0.00935643
0.00935543
0.00935349
0.00934715
0.00933211
0.00930311
0.00925385
0.00917749
0.00906742
0.00891788
0.0087252
0.00848906
0.00821394
0.00791055
0.00759658
0.00729684
0.00704304
0.00687202
0.00682268
0.00693165
0.00722286
0.0076734
0.00820109
0.00926246
0.00925594
0.00925036
0.00924438
0.00923529
0.00921964
0.00919323
0.00915102
0.00908755
0.00899743
0.00887588
0.00871958
0.0085277
0.00830286
0.00805207
0.00778732
0.00752573
0.00728923
0.00710364
0.00699712
0.00699744
0.00712849
0.00740241
0.0078048
0.0082724
0.00916634
0.00915885
0.00915037
0.00913927
0.00912333
0.0090996
0.00906445
0.00901389
0.00894384
0.00885056
0.00873125
0.0085847
0.00841207
0.0082175
0.00800863
0.00779678
0.00759687
0.00742659
0.00730564
0.00725453
0.00729282
0.0074366
0.00769306
0.00804179
0.0084419
0.00907497
0.00906671
0.00905606
0.00904148
0.00902119
0.00899298
0.00895423
0.00890215
0.00883403
0.00874758
0.00864139
0.00851537
0.00837132
0.00821327
0.00804782
0.00788418
0.007734
0.00761069
0.00752871
0.00750254
0.00754515
0.0076656
0.00786507
0.0081315
0.00844997
0.00898926
0.00898076
0.00896891
0.00895236
0.00892974
0.00889946
0.00885971
0.00880863
0.00874453
0.00866617
0.00857304
0.00846574
0.00834627
0.00821833
0.00808747
0.00796103
0.00784797
0.00775836
0.00770275
0.00769117
0.00773182
0.0078293
0.00798234
0.00818255
0.00841943
0.00890972
0.00890142
0.00888917
0.00887185
0.00884843
0.0088178
0.00877874
0.00873006
0.00867081
0.00860041
0.00851894
0.00842734
0.00832766
0.00822319
0.00811853
0.00801957
0.00793319
0.00786692
0.00782831
0.0078241
0.00785925
0.00793567
0.00805119
0.00819958
0.00837244
0.00883625
0.00882841
0.0088163
0.00879902
0.00877582
0.00874594
0.00870861
0.00866314
0.00860904
0.00854622
0.00847507
0.00839671
0.00831305
0.00822695
0.00814217
0.00806336
0.00799575
0.0079449
0.00791612
0.00791389
0.00794105
0.00799812
0.00808273
0.00818979
0.00831215
0.00876852
0.00876125
0.00874963
0.0087329
0.00871052
0.00868205
0.008647
0.00860503
0.008556
0.00850008
0.00843788
0.0083705
0.00829971
0.00822791
0.00815815
0.00809405
0.00803958
0.00799877
0.00797532
0.00797212
0.00799073
0.0080309
0.00809032
0.00816468
0.00824783
0.00870605
0.00869941
0.00868845
0.00867256
0.00865137
0.00862463
0.00859209
0.00855364
0.00850936
0.0084596
0.00840502
0.00834672
0.00828622
0.00822554
0.00816712
0.00811375
0.00806841
0.008034
0.00801306
0.00800742
0.0080178
0.00804357
0.00808259
0.00813119
0.00818426
0.00864838
0.00864235
0.00863214
0.00861723
0.0085974
0.00857252
0.00854252
0.00850744
0.0084675
0.00842312
0.008375
0.00832414
0.00827186
0.00821982
0.00816995
0.0081244
0.00808536
0.00805491
0.00803477
0.00802604
0.00802894
0.00804267
0.00806529
0.0080937
0.00812375
0.00859503
0.00858959
0.00858015
0.00856628
0.00854785
0.00852484
0.00849728
0.00846532
0.00842925
0.00838953
0.00834684
0.00830207
0.00825635
0.00821101
0.00816759
0.00812771
0.00809299
0.0080649
0.00804457
0.00803261
0.00802896
0.00803277
0.00804229
0.00805498
0.00806744
0.00854559
0.00854069
0.008532
0.00851916
0.00850211
0.00848089
0.00845561
0.00842648
0.00839382
0.00835811
0.00831996
0.00828016
0.00823966
0.00819953
0.00816097
0.00812521
0.00809343
0.00806665
0.0080456
0.00803058
0.00802135
0.00801707
0.00801624
0.00801673
0.00801583
0.00849966
0.00849525
0.00848728
0.00847542
0.00845968
0.00844013
0.00841694
0.00839034
0.00836066
0.00832837
0.00829401
0.00825827
0.00822194
0.00818587
0.00815099
0.00811823
0.00808844
0.00806233
0.00804033
0.00802255
0.00800866
0.00799788
0.00798893
0.00798004
0.00796904
0.00845691
0.00845294
0.00844562
0.00843469
0.00842016
0.00840215
0.00838085
0.00835648
0.0083294
0.00830001
0.00826882
0.0082364
0.00820341
0.00817052
0.00813845
0.00810789
0.00807946
0.00805362
0.00803063
0.00801047
0.00799278
0.00797685
0.00796158
0.00794553
0.00792697
0.00841702
0.00841345
0.00840673
0.00839664
0.00838322
0.00836661
0.00834699
0.0083246
0.00829976
0.00827285
0.00824431
0.00821462
0.00818431
0.00815394
0.00812404
0.00809512
0.00806763
0.00804187
0.00801797
0.00799582
0.00797509
0.00795513
0.00793501
0.00791358
0.00788943
0.00837974
0.00837651
0.00837034
0.00836102
0.00834861
0.00833326
0.00831513
0.00829448
0.00827158
0.00824679
0.00822047
0.00819303
0.00816492
0.00813655
0.00810835
0.00808069
0.00805388
0.00802811
0.00800343
0.0079797
0.00795659
0.00793353
0.00790977
0.00788434
0.00785614
0.00834484
0.00834192
0.00833623
0.00832761
0.00831611
0.00830187
0.00828508
0.00826594
0.00824473
0.00822174
0.0081973
0.00817175
0.00814544
0.00811871
0.00809188
0.00806522
0.00803894
0.00801315
0.00798786
0.00796291
0.00793799
0.00791262
0.00788618
0.00785787
0.00782682
0.00831212
0.00830946
0.00830421
0.00829622
0.00828553
0.0082723
0.00825668
0.00823888
0.00821913
0.0081977
0.00817486
0.0081509
0.0081261
0.00810073
0.00807502
0.00804919
0.00802336
0.0079976
0.00797188
0.00794604
0.00791981
0.00789278
0.00786443
0.00783412
0.00780116
0.00828141
0.008279
0.00827414
0.0082667
0.00825674
0.0082444
0.00822983
0.0082132
0.00819473
0.00817465
0.00815319
0.00813059
0.00810707
0.00808285
0.00805811
0.00803299
0.00800759
0.00798193
0.00795595
0.00792953
0.0079024
0.00787424
0.00784461
0.007813
0.00777887
0.00825258
0.00825037
0.00824586
0.00823892
0.00822962
0.00821808
0.00820443
0.00818884
0.0081715
0.00815259
0.00813233
0.00811091
0.00808851
0.00806529
0.00804139
0.00801693
0.00799195
0.00796647
0.00794041
0.00791365
0.00788599
0.00785713
0.00782673
0.00779439
0.00775965
0.0082255
0.00822348
0.00821928
0.00821279
0.00820407
0.00819324
0.00818042
0.00816575
0.0081494
0.00813153
0.00811233
0.00809194
0.00807052
0.0080482
0.00802508
0.00800124
0.0079767
0.00795148
0.00792549
0.00789863
0.00787073
0.00784153
0.00781078
0.00777813
0.00774325
0.00820008
0.00819821
0.00819429
0.0081882
0.00818001
0.00816981
0.00815773
0.00814388
0.00812842
0.00811148
0.00809321
0.00807375
0.00805322
0.00803171
0.00800932
0.00798608
0.00796203
0.00793714
0.00791137
0.0078846
0.00785669
0.00782746
0.00779667
0.00776408
0.0077294
0.00817621
0.00817448
0.00817081
0.00816508
0.00815736
0.00814774
0.00813632
0.00812321
0.00810854
0.00809243
0.00807502
0.0080564
0.00803668
0.00801593
0.00799423
0.0079716
0.00794806
0.00792359
0.00789814
0.00787163
0.00784393
0.00781489
0.00778433
0.00775206
0.00771786
0.00815382
0.00815222
0.00814876
0.00814336
0.00813607
0.00812697
0.00811614
0.0081037
0.00808975
0.0080744
0.00805776
0.00803991
0.00802095
0.00800092
0.00797989
0.00795787
0.00793488
0.0079109
0.00788588
0.00785976
0.00783243
0.00780378
0.00777366
0.00774193
0.00770842
0.00813283
0.00813135
0.00812809
0.00812299
0.00811608
0.00810745
0.00809717
0.00808534
0.00807204
0.00805739
0.00804146
0.00802433
0.00800607
0.00798674
0.00796636
0.00794497
0.00792257
0.00789913
0.00787463
0.007849
0.00782218
0.00779407
0.00776455
0.00773353
0.00770087
0.00811319
0.00811181
0.00810873
0.00810389
0.00809734
0.00808914
0.00807936
0.00806808
0.00805539
0.00804138
0.00802611
0.00800966
0.00799208
0.00797341
0.00795369
0.00793293
0.00791114
0.0078883
0.00786439
0.00783935
0.00781314
0.00778569
0.0077569
0.0077267
0.00769501
0.00809484
0.00809354
0.00809063
0.00808604
0.0080798
0.00807199
0.00806267
0.00805191
0.00803978
0.00802637
0.00801172
0.00799591
0.00797898
0.00796096
0.00794189
0.00792178
0.00790062
0.00787842
0.00785515
0.00783078
0.00780526
0.00777855
0.00775059
0.00772132
0.00769068
0.00807771
0.00807649
0.00807373
0.00806936
0.00806342
0.00805598
0.00804708
0.0080368
0.00802519
0.00801234
0.00799828
0.00798308
0.00796678
0.0079494
0.00793097
0.0079115
0.00789101
0.00786947
0.00784689
0.00782324
0.00779848
0.00777259
0.00774552
0.00771724
0.00768772
0.00806175
0.00806061
0.00805798
0.00805382
0.00804816
0.00804105
0.00803255
0.00802271
0.0080116
0.00799927
0.00798578
0.00797116
0.00795546
0.00793871
0.00792092
0.00790211
0.00788229
0.00786145
0.00783958
0.00781668
0.00779273
0.00776771
0.00774159
0.00771435
0.00768597
0.00804692
0.00804584
0.00804334
0.00803937
0.00803397
0.00802717
0.00801904
0.00800962
0.00799897
0.00798714
0.00797418
0.00796013
0.00794503
0.00792889
0.00791173
0.00789358
0.00787443
0.0078543
0.00783318
0.00781107
0.00778796
0.00776383
0.00773869
0.00771251
0.0076853
0.00803317
0.00803214
0.00802976
0.00802597
0.0080208
0.0080143
0.00800652
0.00799749
0.00798728
0.00797593
0.00796348
0.00794998
0.00793545
0.00791991
0.00790338
0.00788588
0.00786743
0.00784801
0.00782765
0.00780634
0.00778409
0.00776088
0.00773673
0.00771163
0.00768559
0.00802044
0.00801947
0.0080172
0.00801357
0.00800863
0.0080024
0.00799494
0.00798629
0.0079765
0.0079656
0.00795365
0.00794067
0.0079267
0.00791175
0.00789584
0.00787899
0.00786122
0.00784253
0.00782294
0.00780244
0.00778105
0.00775877
0.00773562
0.0077116
0.00768672
0.00800869
0.00800777
0.0080056
0.00800213
0.0079974
0.00799143
0.00798428
0.00797598
0.00796658
0.00795613
0.00794465
0.00793218
0.00791875
0.00790437
0.00788908
0.00787288
0.00785579
0.00783782
0.00781899
0.00779931
0.00777878
0.00775744
0.00773527
0.00771232
0.0076886
0.00799788
0.007997
0.00799493
0.00799161
0.00798707
0.00798135
0.00797449
0.00796653
0.00795751
0.00794747
0.00793645
0.00792447
0.00791157
0.00789776
0.00788307
0.0078675
0.00785109
0.00783384
0.00781576
0.00779689
0.00777723
0.0077568
0.00773562
0.00771372
0.00769112
0.00798795
0.00798712
0.00798513
0.00798195
0.0079776
0.00797211
0.00796553
0.00795789
0.00794924
0.0079396
0.00792902
0.00791752
0.00790513
0.00789187
0.00787776
0.00786282
0.00784707
0.00783053
0.0078132
0.00779513
0.00777631
0.00775679
0.00773658
0.00771571
0.00769421
0.00797887
0.00797808
0.00797617
0.00797313
0.00796895
0.00796369
0.00795737
0.00795004
0.00794173
0.00793248
0.00792232
0.00791128
0.00789939
0.00788667
0.00787313
0.0078588
0.0078437
0.00782785
0.00781126
0.00779397
0.00777599
0.00775735
0.00773808
0.00771821
0.00769778
0.00797059
0.00796983
0.00796801
0.00796509
0.00796108
0.00795603
0.00794996
0.00794292
0.00793495
0.00792607
0.00791632
0.00790572
0.00789432
0.00788211
0.00786913
0.0078554
0.00784093
0.00782576
0.00780989
0.00779336
0.0077762
0.00775842
0.00774007
0.00772117
0.00770176
0.00796307
0.00796235
0.0079606
0.00795779
0.00795395
0.00794909
0.00794327
0.00793651
0.00792885
0.00792033
0.00791097
0.00790081
0.00788987
0.00787817
0.00786573
0.00785258
0.00783873
0.00782421
0.00780905
0.00779326
0.00777688
0.00775994
0.00774248
0.00772451
0.0077061
0.00795627
0.00795558
0.0079539
0.0079512
0.00794751
0.00794285
0.00793725
0.00793076
0.00792341
0.00791523
0.00790625
0.0078965
0.00788601
0.00787479
0.00786288
0.00785029
0.00783704
0.00782316
0.00780868
0.00779361
0.007778
0.00776187
0.00774525
0.00772819
0.00771073
0.00795015
0.00794948
0.00794787
0.00794528
0.00794173
0.00793725
0.00793188
0.00792564
0.00791858
0.00791072
0.00790211
0.00789276
0.0078827
0.00787196
0.00786055
0.0078485
0.00783583
0.00782257
0.00780874
0.00779438
0.0077795
0.00776415
0.00774835
0.00773215
0.0077156
0.00794466
0.00794401
0.00794247
0.00793998
0.00793657
0.00793226
0.0079271
0.0079211
0.00791432
0.00790678
0.00789851
0.00788955
0.00787991
0.00786962
0.0078587
0.00784717
0.00783506
0.0078224
0.0078092
0.00779551
0.00778134
0.00776673
0.00775173
0.00773635
0.00772066
0.00793976
0.00793915
0.00793766
0.00793527
0.00793199
0.00792785
0.00792288
0.00791712
0.00791061
0.00790337
0.00789543
0.00788684
0.0078776
0.00786774
0.00785729
0.00784627
0.0078347
0.00782261
0.00781002
0.00779697
0.00778348
0.00776959
0.00775533
0.00774075
0.00772587
0.00793543
0.00793483
0.00793341
0.00793111
0.00792795
0.00792397
0.00791919
0.00791365
0.00790739
0.00790044
0.00789283
0.00788458
0.00787573
0.00786629
0.00785629
0.00784575
0.0078347
0.00782316
0.00781115
0.00779872
0.00778588
0.00777267
0.00775913
0.0077453
0.00773121
0.00793162
0.00793104
0.00792967
0.00792746
0.00792442
0.00792058
0.00791599
0.00791067
0.00790465
0.00789797
0.00789067
0.00788276
0.00787427
0.00786523
0.00785566
0.00784559
0.00783503
0.00782401
0.00781257
0.00780072
0.0077885
0.00777595
0.00776309
0.00774997
0.00773662
0.00792829
0.00792774
0.00792642
0.00792429
0.00792136
0.00791767
0.00791325
0.00790813
0.00790234
0.00789593
0.00788891
0.00788133
0.00787319
0.00786454
0.00785538
0.00784575
0.00783566
0.00782515
0.00781423
0.00780295
0.00779132
0.00777939
0.00776718
0.00775473
0.00774208
0.00792542
0.00792488
0.00792361
0.00792156
0.00791874
0.00791518
0.00791093
0.007906
0.00790044
0.00789427
0.00788753
0.00788026
0.00787246
0.00786417
0.00785541
0.00784619
0.00783656
0.00782653
0.00781612
0.00780537
0.0077943
0.00778296
0.00777136
0.00775955
0.00774757
0.00792297
0.00792245
0.00792122
0.00791924
0.00791652
0.0079131
0.007909
0.00790425
0.0078989
0.00789297
0.0078865
0.00787952
0.00787204
0.0078641
0.00785571
0.0078469
0.0078377
0.00782812
0.00781819
0.00780795
0.00779742
0.00778663
0.00777562
0.00776442
0.00775306
0.0079209
0.0079204
0.00791922
0.00791731
0.00791468
0.00791138
0.00790743
0.00790286
0.00789771
0.00789201
0.00788579
0.00787908
0.00787191
0.0078643
0.00785627
0.00784784
0.00783904
0.0078299
0.00782043
0.00781067
0.00780065
0.00779039
0.00777992
0.00776929
0.00775852
0.00791919
0.00791871
0.00791756
0.00791572
0.00791319
0.00791
0.00790619
0.00790179
0.00789682
0.00789134
0.00788536
0.00787892
0.00787203
0.00786474
0.00785705
0.00784898
0.00784058
0.00783184
0.00782281
0.00781351
0.00780396
0.0077942
0.00778426
0.00777416
0.00776395
0.00791781
0.00791734
0.00791624
0.00791446
0.00791201
0.00790893
0.00790525
0.00790101
0.00789623
0.00789094
0.00788519
0.007879
0.00787239
0.00786539
0.00785802
0.00785031
0.00784227
0.00783392
0.0078253
0.00781643
0.00780734
0.00779805
0.00778859
0.007779
0.00776931
0.00791673
0.00791627
0.0079152
0.00791348
0.00791112
0.00790815
0.00790459
0.0079005
0.00789588
0.0078908
0.00788526
0.00787931
0.00787296
0.00786624
0.00785918
0.00785179
0.00784409
0.00783612
0.00782789
0.00781942
0.00781076
0.00780191
0.00779292
0.00778381
0.00777461
0.00791592
0.00791547
0.00791444
0.00791278
0.00791049
0.00790762
0.00790418
0.00790022
0.00789577
0.00789087
0.00788554
0.00787981
0.00787371
0.00786726
0.00786048
0.0078534
0.00784603
0.00783841
0.00783054
0.00782246
0.0078142
0.00780577
0.00779721
0.00778855
0.00777981
0.00791536
0.00791492
0.00791393
0.00791231
0.0079101
0.00790732
0.007904
0.00790017
0.00789587
0.00789114
0.007886
0.00788048
0.00787462
0.00786842
0.00786192
0.00785513
0.00784807
0.00784077
0.00783325
0.00782554
0.00781765
0.00780962
0.00780147
0.00779322
0.00778492
0.00791502
0.0079146
0.00791363
0.00791207
0.00790992
0.00790723
0.00790401
0.00790031
0.00789616
0.00789159
0.00788663
0.00788131
0.00787567
0.00786971
0.00786346
0.00785694
0.00785018
0.00784319
0.007836
0.00782862
0.00782109
0.00781343
0.00780566
0.00779781
0.00778991
0.00791488
0.00791447
0.00791353
0.00791201
0.00790993
0.00790732
0.00790421
0.00790062
0.00789661
0.00789219
0.0078874
0.00788227
0.00787683
0.0078711
0.00786509
0.00785884
0.00785235
0.00784565
0.00783876
0.00783171
0.00782451
0.0078172
0.00780979
0.00780231
0.00779479
0.00791492
0.00791451
0.0079136
0.00791213
0.00791012
0.00790758
0.00790456
0.00790109
0.0078972
0.00789292
0.0078883
0.00788335
0.0078781
0.00787258
0.0078668
0.00786079
0.00785456
0.00784813
0.00784153
0.00783478
0.0078279
0.00782091
0.00781383
0.0078067
0.00779953
0.00791511
0.00791472
0.00791384
0.00791241
0.00791045
0.00790798
0.00790505
0.00790168
0.00789791
0.00789377
0.0078893
0.00788452
0.00787945
0.00787413
0.00786856
0.00786278
0.00785679
0.00785062
0.00784429
0.00783782
0.00783123
0.00782455
0.00781779
0.00781098
0.00780414
0.00791544
0.00791506
0.0079142
0.00791281
0.00791091
0.00790851
0.00790566
0.00790239
0.00789873
0.00789472
0.00789039
0.00788576
0.00788087
0.00787573
0.00787036
0.00786479
0.00785903
0.0078531
0.00784703
0.00784082
0.0078345
0.0078281
0.00782164
0.00781513
0.0078086
0.0079159
0.00791552
0.00791469
0.00791333
0.00791148
0.00790915
0.00790638
0.00790319
0.00789964
0.00789575
0.00789155
0.00788707
0.00788233
0.00787737
0.00787219
0.00786682
0.00786127
0.00785557
0.00784972
0.00784377
0.00783771
0.00783157
0.00782538
0.00781916
0.00781292
0.00791645
0.00791609
0.00791527
0.00791395
0.00791214
0.00790987
0.00790717
0.00790408
0.00790062
0.00789684
0.00789276
0.00788842
0.00788384
0.00787903
0.00787403
0.00786884
0.00786349
0.007858
0.00785238
0.00784665
0.00784083
0.00783494
0.00782901
0.00782304
0.00781707
0.00791709
0.00791673
0.00791594
0.00791465
0.00791289
0.00791068
0.00790804
0.00790503
0.00790166
0.00789798
0.00789402
0.0078898
0.00788536
0.00788071
0.00787586
0.00787085
0.00786569
0.00786039
0.00785497
0.00784946
0.00784386
0.00783821
0.00783251
0.00782679
0.00782107
0.0079178
0.00791745
0.00791668
0.00791542
0.0079137
0.00791154
0.00790897
0.00790603
0.00790274
0.00789916
0.0078953
0.00789121
0.00788689
0.00788238
0.00787769
0.00787284
0.00786785
0.00786273
0.0078575
0.00785219
0.0078468
0.00784136
0.00783588
0.00783039
0.0078249
0.00791857
0.00791822
0.00791747
0.00791625
0.00791456
0.00791245
0.00790994
0.00790706
0.00790386
0.00790036
0.00789661
0.00789262
0.00788842
0.00788404
0.00787949
0.00787479
0.00786995
0.007865
0.00785996
0.00785482
0.00784963
0.00784439
0.00783912
0.00783383
0.00782856
0.00791937
0.00791904
0.00791831
0.00791711
0.00791546
0.00791339
0.00791094
0.00790812
0.00790499
0.00790158
0.00789791
0.00789402
0.00788993
0.00788567
0.00788125
0.00787669
0.007872
0.00786721
0.00786232
0.00785736
0.00785235
0.00784729
0.00784221
0.00783712
0.00783204
0.00792021
0.00791989
0.00791917
0.007918
0.00791639
0.00791436
0.00791195
0.0079092
0.00790613
0.00790279
0.00789921
0.00789541
0.00789143
0.00788727
0.00788297
0.00787853
0.00787398
0.00786933
0.0078646
0.0078598
0.00785495
0.00785006
0.00784515
0.00784024
0.00783535
0.00792107
0.00792076
0.00792006
0.00791892
0.00791733
0.00791535
0.00791298
0.00791028
0.00790727
0.007904
0.00790049
0.00789678
0.00789288
0.00788883
0.00788463
0.00788032
0.00787589
0.00787137
0.00786678
0.00786212
0.00785742
0.00785269
0.00784795
0.0078432
0.00783848
0.00792194
0.00792164
0.00792096
0.00791984
0.00791829
0.00791633
0.00791401
0.00791135
0.0079084
0.00790518
0.00790174
0.00789811
0.00789429
0.00789033
0.00788624
0.00788203
0.00787772
0.00787332
0.00786885
0.00786433
0.00785977
0.00785518
0.00785058
0.00784599
0.00784142
0.0079228
0.00792252
0.00792186
0.00792077
0.00791924
0.00791732
0.00791503
0.00791241
0.00790951
0.00790635
0.00790296
0.00789939
0.00789566
0.00789178
0.00788777
0.00788366
0.00787945
0.00787516
0.00787081
0.00786641
0.00786198
0.00785752
0.00785306
0.00784861
0.00784418
0.00792366
0.0079234
0.00792276
0.00792169
0.00792019
0.00791829
0.00791604
0.00791345
0.00791059
0.00790747
0.00790414
0.00790063
0.00789696
0.00789315
0.00788923
0.0078852
0.00788109
0.0078769
0.00787265
0.00786836
0.00786405
0.00785971
0.00785537
0.00785105
0.00784675
0.00792451
0.00792427
0.00792366
0.00792261
0.00792113
0.00791926
0.00791702
0.00791447
0.00791163
0.00790856
0.00790527
0.00790181
0.0078982
0.00789446
0.0078906
0.00788665
0.00788262
0.00787852
0.00787437
0.00787018
0.00786597
0.00786174
0.00785752
0.00785331
0.00784913
0.00792534
0.00792512
0.00792455
0.00792352
0.00792206
0.0079202
0.00791799
0.00791545
0.00791264
0.00790959
0.00790635
0.00790293
0.00789936
0.00789568
0.00789188
0.007888
0.00788405
0.00788003
0.00787597
0.00787187
0.00786775
0.00786362
0.0078595
0.00785539
0.00785132
0.00792615
0.00792598
0.00792543
0.00792442
0.00792297
0.00792113
0.00791892
0.0079164
0.0079136
0.00791058
0.00790735
0.00790397
0.00790045
0.00789681
0.00789307
0.00788925
0.00788536
0.00788141
0.00787743
0.00787341
0.00786937
0.00786533
0.0078613
0.00785729
0.00785332
0.00792696
0.00792682
0.00792632
0.00792532
0.00792388
0.00792203
0.00791982
0.0079173
0.00791451
0.0079115
0.00790829
0.00790493
0.00790144
0.00789784
0.00789415
0.00789038
0.00788655
0.00788267
0.00787875
0.0078748
0.00787084
0.00786688
0.00786293
0.00785901
0.00785512
0.00792776
0.00792769
0.00792722
0.00792623
0.00792478
0.00792292
0.00792069
0.00791816
0.00791536
0.00791235
0.00790915
0.00790581
0.00790234
0.00789878
0.00789512
0.0078914
0.00788762
0.00788379
0.00787993
0.00787605
0.00787216
0.00786826
0.00786439
0.00786053
0.00785672
0.0079286
0.00792859
0.00792816
0.00792717
0.00792569
0.00792379
0.00792153
0.00791897
0.00791615
0.00791312
0.00790993
0.00790659
0.00790315
0.0078996
0.00789598
0.0078923
0.00788856
0.00788478
0.00788097
0.00787714
0.00787331
0.00786948
0.00786566
0.00786188
0.00785813
0.00792952
0.00792959
0.00792918
0.00792815
0.0079266
0.00792463
0.00792232
0.00791971
0.00791686
0.00791381
0.00791061
0.00790728
0.00790384
0.00790032
0.00789672
0.00789307
0.00788937
0.00788563
0.00788186
0.00787808
0.0078743
0.00787052
0.00786676
0.00786303
0.00785934
0.00793064
0.00793075
0.00793032
0.00792919
0.00792752
0.00792545
0.00792304
0.00792037
0.00791747
0.0079144
0.00791118
0.00790785
0.00790442
0.00790091
0.00789734
0.00789371
0.00789004
0.00788634
0.00788261
0.00787887
0.00787513
0.00787139
0.00786768
0.00786399
0.00786035
0.00793215
0.00793222
0.00793166
0.00793032
0.00792845
0.00792622
0.00792369
0.00792093
0.00791798
0.00791487
0.00791164
0.0079083
0.00790487
0.00790138
0.00789782
0.00789422
0.00789058
0.0078869
0.00788321
0.0078795
0.00787579
0.0078721
0.00786842
0.00786477
0.00786117
0.0079344
0.00793418
0.00793327
0.00793154
0.00792936
0.0079269
0.00792422
0.00792136
0.00791834
0.0079152
0.00791196
0.00790862
0.0079052
0.00790172
0.00789818
0.0078946
0.00789097
0.00788733
0.00788366
0.00787998
0.0078763
0.00787263
0.00786898
0.00786537
0.00786179
0.00793836
0.00793706
0.00793519
0.00793278
0.00793015
0.0079274
0.00792455
0.00792159
0.00791853
0.00791537
0.00791212
0.00790879
0.00790538
0.00790192
0.0078984
0.00789483
0.00789123
0.0078876
0.00788395
0.0078803
0.00787664
0.00787299
0.00786937
0.00786578
0.00786223
0.00794719
0.00794184
0.00793737
0.00793382
0.00793064
0.0079276
0.0079246
0.00792159
0.00791852
0.00791536
0.00791213
0.00790881
0.00790543
0.00790198
0.00789848
0.00789493
0.00789135
0.00788774
0.00788411
0.00788047
0.00787683
0.00787319
0.00786959
0.00786601
0.00786247
0.00796423
0.00794841
0.00793942
0.00793451
0.0079308
0.00792754
0.00792447
0.00792145
0.00791839
0.00791526
0.00791205
0.00790876
0.0079054
0.00790197
0.00789849
0.00789496
0.00789139
0.00788779
0.00788417
0.00788053
0.0078769
0.00787328
0.00786968
0.0078661
0.00786257
-0.0960968
-0.094282
-0.0917546
-0.0886224
-0.0849677
-0.0809531
-0.0766273
-0.0720372
-0.0672418
-0.0623148
-0.057346
-0.0524343
-0.0476726
-0.0431362
-0.0388893
-0.0349894
-0.0314809
-0.0283904
-0.0257312
-0.023506
-0.0217106
-0.0203387
-0.0194031
-0.018892
-0.0188283
-0.10069
-0.0981542
-0.0945214
-0.0897609
-0.0842502
-0.0783279
-0.0721902
-0.0660129
-0.0599475
-0.0541221
-0.0486398
-0.0435636
-0.0389154
-0.0347032
-0.030942
-0.0276442
-0.0248057
-0.022407
-0.020425
-0.0188346
-0.0176061
-0.0167107
-0.0161424
-0.0158611
-0.0158208
-0.0952373
-0.0933097
-0.0895966
-0.0841802
-0.0778759
-0.0711304
-0.0642313
-0.0574367
-0.0509485
-0.0449112
-0.0394198
-0.0345244
-0.0302355
-0.0265402
-0.0234114
-0.0208061
-0.0186726
-0.0169563
-0.0156023
-0.01456
-0.0137827
-0.0132324
-0.0128929
-0.0127171
-0.012639
-0.0853899
-0.0839442
-0.0804785
-0.0751397
-0.0689715
-0.0623782
-0.0556423
-0.0490407
-0.042806
-0.0370938
-0.031998
-0.0275613
-0.0237834
-0.0206319
-0.018053
-0.0159809
-0.0143457
-0.0130768
-0.0121093
-0.0113857
-0.0108579
-0.0104881
-0.010258
-0.0101231
-0.0100145
-0.0738226
-0.0726308
-0.0694675
-0.0645582
-0.0590132
-0.0531478
-0.0471644
-0.0412934
-0.0357489
-0.0306866
-0.0261989
-0.0223281
-0.0190743
-0.0164044
-0.0142627
-0.0125804
-0.0112849
-0.0103057
-0.00957821
-0.0090457
-0.00866292
-0.00839436
-0.0082225
-0.00810902
-0.00799185
-0.0616655
-0.0606479
-0.0578142
-0.0534891
-0.0487602
-0.0438478
-0.0388704
-0.0339859
-0.0293595
-0.0251277
-0.0213727
-0.0181365
-0.0154256
-0.0132147
-0.0114563
-0.0100904
-0.00905217
-0.00827814
-0.00771063
-0.00730027
-0.00700621
-0.00679775
-0.00665958
-0.0065617
-0.0064528
-0.0497388
-0.048872
-0.0463899
-0.0427131
-0.038854
-0.0349386
-0.0310147
-0.027169
-0.0235179
-0.0201654
-0.017179
-0.014596
-0.0124261
-0.0106539
-0.00924615
-0.00815512
-0.00732849
-0.0067146
-0.00626606
-0.00594232
-0.00571012
-0.00554407
-0.00543067
-0.00534803
-0.00525612
-0.0385973
-0.0378657
-0.0357448
-0.0327231
-0.0297043
-0.0267286
-0.0237886
-0.0209232
-0.0182096
-0.0157139
-0.0134795
-0.011532
-0.00988144
-0.0085227
-0.00743558
-0.0065875
-0.00594143
-0.00545865
-0.00510345
-0.00484502
-0.00465841
-0.00452389
-0.00443065
-0.00436248
-0.00428973
-0.0285666
-0.0279316
-0.0261326
-0.0236937
-0.0214068
-0.0192567
-0.0171981
-0.0152296
-0.0133815
-0.0116785
-0.0101437
-0.00879402
-0.00763848
-0.00667542
-0.00589172
-0.00526811
-0.00478246
-0.00441182
-0.00413347
-0.00392665
-0.00377468
-0.0036639