/*--------------------------------*- C++ -*----------------------------------*\
  =========                 |
  \\      /  F ield         | OpenFOAM: The Open Source CFD Toolbox
   \\    /   O peration     | Website:  https://openfoam.org
    \\  /    A nd           | Version:  13
     \\/     M anipulation  |
\*---------------------------------------------------------------------------*/
FoamFile
{
    format      ascii;
    class       volScalarField;
    location    "1";
    object      p;
}
// * * * * * * * * * * * * * * * * * * * * * * * * * * * * * * * * * * * * * //

dimensions      [0 2 -2 0 0 0 0];

internalField   nonuniform List<scalar> 
6440
(
-596.296
-596.295
-596.294
-596.291
-596.287
-596.282
-596.277
-596.271
-596.265
-596.259
-596.254
-596.248
-596.242
-596.237
-596.232
-596.227
-596.223
-596.219
-596.216
-596.215
-596.214
-596.214
-596.215
-596.215
-596.215
-596.298
-596.297
-596.295
-596.293
-596.289
-596.284
-596.279
-596.273
-596.266
-596.26
-596.254
-596.248
-596.243
-596.238
-596.233
-596.228
-596.224
-596.22
-596.217
-596.215
-596.214
-596.214
-596.215
-596.215
-596.216
-596.301
-596.3
-596.298
-596.295
-596.292
-596.287
-596.281
-596.274
-596.268
-596.261
-596.255
-596.249
-596.244
-596.239
-596.234
-596.23
-596.225
-596.221
-596.218
-596.216
-596.215
-596.215
-596.216
-596.217
-596.217
-596.306
-596.305
-596.303
-596.3
-596.295
-596.29
-596.283
-596.276
-596.269
-596.262
-596.255
-596.249
-596.244
-596.239
-596.235
-596.23
-596.226
-596.222
-596.219
-596.217
-596.217
-596.217
-596.218
-596.219
-596.22
-596.313
-596.312
-596.309
-596.305
-596.3
-596.293
-596.285
-596.277
-596.269
-596.262
-596.255
-596.249
-596.243
-596.238
-596.234
-596.23
-596.225
-596.221
-596.219
-596.217
-596.217
-596.218
-596.22
-596.221
-596.222
-596.322
-596.32
-596.316
-596.312
-596.306
-596.297
-596.288
-596.279
-596.27
-596.261
-596.254
-596.247
-596.242
-596.237
-596.232
-596.228
-596.223
-596.219
-596.216
-596.215
-596.215
-596.217
-596.22
-596.223
-596.225
-596.334
-596.331
-596.327
-596.321
-596.313
-596.303
-596.292
-596.281
-596.271
-596.261
-596.253
-596.246
-596.24
-596.235
-596.23
-596.226
-596.221
-596.216
-596.213
-596.211
-596.212
-596.215
-596.221
-596.225
-596.227
-596.35
-596.346
-596.341
-596.334
-596.324
-596.311
-596.297
-596.284
-596.272
-596.261
-596.252
-596.244
-596.238
-596.232
-596.228
-596.223
-596.218
-596.213
-596.209
-596.208
-596.209
-596.213
-596.221
-596.226
-596.23
-596.369
-596.365
-596.36
-596.35
-596.337
-596.321
-596.304
-596.289
-596.275
-596.262
-596.251
-596.243
-596.236
-596.231
-596.226
-596.221
-596.215
-596.21
-596.206
-596.204
-596.205
-596.211
-596.221
-596.229
-596.234
-596.39
-596.386
-596.38
-596.369
-596.352
-596.333
-596.313
-596.295
-596.279
-596.264
-596.252
-596.242
-596.235
-596.23
-596.225
-596.22
-596.213
-596.207
-596.202
-596.2
-596.202
-596.209
-596.222
-596.233
-596.241
-596.409
-596.405
-596.4
-596.388
-596.368
-596.346
-596.324
-596.303
-596.285
-596.268
-596.255
-596.244
-596.236
-596.23
-596.225
-596.22
-596.213
-596.206
-596.2
-596.198
-596.2
-596.208
-596.225
-596.24
-596.25
-596.425
-596.421
-596.416
-596.405
-596.384
-596.36
-596.336
-596.314
-596.294
-596.276
-596.26
-596.248
-596.239
-596.233
-596.228
-596.223
-596.215
-596.207
-596.2
-596.198
-596.2
-596.21
-596.231
-596.251
-596.264
-596.443
-596.435
-596.428
-596.419
-596.398
-596.374
-596.35
-596.327
-596.306
-596.287
-596.271
-596.257
-596.247
-596.24
-596.235
-596.229
-596.221
-596.211
-596.204
-596.201
-596.203
-596.215
-596.241
-596.268
-596.286
-596.459
-596.45
-596.44
-596.43
-596.41
-596.387
-596.364
-596.342
-596.322
-596.304
-596.287
-596.273
-596.262
-596.254
-596.249
-596.242
-596.232
-596.222
-596.213
-596.208
-596.212
-596.225
-596.257
-596.292
-596.318
-596.472
-596.463
-596.449
-596.438
-596.418
-596.397
-596.378
-596.359
-596.342
-596.326
-596.311
-596.297
-596.285
-596.277
-596.271
-596.263
-596.252
-596.24
-596.23
-596.224
-596.227
-596.243
-596.282
-596.328
-596.364
-596.479
-596.47
-596.453
-596.439
-596.421
-596.403
-596.388
-596.375
-596.364
-596.353
-596.342
-596.331
-596.321
-596.313
-596.306
-596.297
-596.285
-596.27
-596.257
-596.251
-596.255
-596.273
-596.323
-596.38
-596.432
-596.477
-596.464
-596.445
-596.432
-596.416
-596.403
-596.393
-596.387
-596.382
-596.38
-596.376
-596.373
-596.368
-596.363
-596.36
-596.352
-596.338
-596.32
-596.303
-596.293
-596.298
-596.32
-596.384
-596.461
-596.54
-596.466
-596.451
-596.43
-596.417
-596.405
-596.394
-596.39
-596.39
-596.394
-596.399
-596.407
-596.414
-596.42
-596.425
-596.429
-596.431
-596.421
-596.405
-596.382
-596.364
-596.364
-596.387
-596.465
-596.564
-596.693
-596.448
-596.442
-596.417
-596.401
-596.387
-596.38
-596.38
-596.386
-596.396
-596.411
-596.428
-596.446
-596.466
-596.485
-596.504
-596.522
-596.531
-596.528
-596.514
-596.493
-596.486
-596.503
-596.601
-596.734
-596.941
-596.412
-596.415
-596.402
-596.38
-596.368
-596.364
-596.368
-596.378
-596.395
-596.416
-596.442
-596.471
-596.503
-596.536
-596.572
-596.61
-596.644
-596.67
-596.687
-596.69
-596.69
-596.699
-596.8
-596.928
-597.315
-596.352
-596.36
-596.364
-596.35
-596.344
-596.345
-596.354
-596.369
-596.391
-596.418
-596.452
-596.489
-596.53
-596.576
-596.626
-596.681
-596.741
-596.803
-596.868
-596.93
-596.988
-597.042
-597.199
-597.468
-597.795
-596.285
-596.293
-596.312
-596.312
-596.315
-596.323
-596.337
-596.356
-596.382
-596.415
-596.453
-596.497
-596.546
-596.602
-596.663
-596.732
-596.813
-596.907
-597.014
-597.131
-597.258
-597.388
-597.57
-597.971
-598.336
-596.22
-596.227
-596.257
-596.272
-596.287
-596.303
-596.322
-596.346
-596.377
-596.414
-596.458
-596.508
-596.565
-596.63
-596.703
-596.787
-596.886
-597.004
-597.145
-597.312
-597.509
-597.741
-598.013
-598.462
-599.098
-596.162
-596.168
-596.208
-596.238
-596.263
-596.286
-596.311
-596.339
-596.374
-596.416
-596.465
-596.522
-596.586
-596.66
-596.745
-596.843
-596.957
-597.094
-597.259
-597.459
-597.704
-598.011
-598.393
-598.933
-599.703
-596.111
-596.126
-596.177
-596.217
-596.248
-596.276
-596.305
-596.338
-596.376
-596.422
-596.477
-596.539
-596.611
-596.694
-596.79
-596.901
-597.031
-597.186
-597.372
-597.597
-597.872
-598.215
-598.654
-599.227
-599.966
-596.085
-596.114
-596.169
-596.212
-596.245
-596.275
-596.306
-596.342
-596.383
-596.433
-596.492
-596.561
-596.64
-596.731
-596.836
-596.96
-597.104
-597.276
-597.48
-597.727
-598.025
-598.393
-598.849
-599.413
-600.094
-596.109
-596.145
-596.187
-596.223
-596.253
-596.283
-596.315
-596.352
-596.397
-596.45
-596.513
-596.586
-596.672
-596.771
-596.886
-597.02
-597.178
-597.363
-597.584
-597.848
-598.164
-598.546
-599.008
-599.559
-600.206
-596.178
-596.198
-596.22
-596.245
-596.271
-596.299
-596.331
-596.369
-596.416
-596.472
-596.539
-596.618
-596.709
-596.815
-596.939
-597.083
-597.251
-597.45
-597.684
-597.961
-598.29
-598.681
-599.144
-599.687
-600.313
-596.243
-596.247
-596.256
-596.273
-596.295
-596.322
-596.354
-596.393
-596.441
-596.5
-596.571
-596.654
-596.751
-596.863
-596.994
-597.147
-597.325
-597.534
-597.779
-598.067
-598.406
-598.803
-599.268
-599.804
-600.415
-596.292
-596.287
-596.292
-596.306
-596.325
-596.35
-596.382
-596.422
-596.473
-596.534
-596.608
-596.695
-596.797
-596.915
-597.053
-597.213
-597.4
-597.618
-597.872
-598.169
-598.515
-598.918
-599.382
-599.913
-600.513
-596.334
-596.325
-596.329
-596.34
-596.358
-596.383
-596.416
-596.458
-596.51
-596.574
-596.651
-596.741
-596.847
-596.971
-597.115
-597.282
-597.476
-597.702
-597.964
-598.268
-598.62
-599.025
-599.491
-600.018
-600.609
-596.37
-596.361
-596.366
-596.377
-596.395
-596.421
-596.455
-596.498
-596.553
-596.619
-596.698
-596.793
-596.903
-597.031
-597.18
-597.353
-597.553
-597.785
-598.054
-598.364
-598.72
-599.129
-599.594
-600.118
-600.703
-596.405
-596.398
-596.404
-596.417
-596.436
-596.463
-596.499
-596.544
-596.6
-596.669
-596.752
-596.849
-596.963
-597.096
-597.249
-597.427
-597.633
-597.87
-598.144
-598.458
-598.818
-599.229
-599.694
-600.216
-600.795
-596.441
-596.435
-596.445
-596.46
-596.481
-596.51
-596.547
-596.595
-596.654
-596.725
-596.81
-596.911
-597.028
-597.164
-597.322
-597.504
-597.714
-597.956
-598.234
-598.552
-598.915
-599.327
-599.792
-600.311
-600.885
-596.478
-596.476
-596.488
-596.505
-596.529
-596.561
-596.601
-596.651
-596.712
-596.786
-596.874
-596.977
-597.098
-597.237
-597.398
-597.584
-597.798
-598.044
-598.325
-598.646
-599.011
-599.423
-599.888
-600.404
-600.974
-596.519
-596.519
-596.535
-596.555
-596.581
-596.616
-596.658
-596.711
-596.775
-596.852
-596.942
-597.048
-597.171
-597.314
-597.478
-597.667
-597.884
-598.133
-598.417
-598.74
-599.106
-599.519
-599.981
-600.495
-601.06
-596.564
-596.567
-596.586
-596.609
-596.638
-596.675
-596.72
-596.776
-596.842
-596.922
-597.015
-597.123
-597.249
-597.394
-597.561
-597.753
-597.973
-598.224
-598.51
-598.834
-599.201
-599.613
-600.075
-600.584
-601.145
-596.613
-596.618
-596.641
-596.667
-596.698
-596.738
-596.787
-596.845
-596.914
-596.996
-597.091
-597.203
-597.331
-597.478
-597.648
-597.842
-598.064
-598.317
-598.605
-598.93
-599.296
-599.708
-600.166
-600.672
-601.227
-596.669
-596.676
-596.7
-596.728
-596.763
-596.805
-596.856
-596.917
-596.989
-597.074
-597.172
-597.285
-597.415
-597.565
-597.737
-597.934
-598.158
-598.412
-598.701
-599.026
-599.392
-599.802
-600.257
-600.758
-601.307
-596.728
-596.737
-596.764
-596.794
-596.831
-596.876
-596.93
-596.994
-597.068
-597.155
-597.255
-597.371
-597.504
-597.656
-597.83
-598.028
-598.254
-598.509
-598.798
-599.123
-599.488
-599.896
-600.347
-600.843
-601.385
-596.793
-596.803
-596.831
-596.863
-596.902
-596.95
-597.007
-597.073
-597.15
-597.239
-597.342
-597.46
-597.595
-597.749
-597.924
-598.124
-598.351
-598.607
-598.896
-599.22
-599.584
-599.988
-600.436
-600.926
-601.461
-596.862
-596.872
-596.902
-596.935
-596.976
-597.027
-597.086
-597.155
-597.235
-597.326
-597.431
-597.551
-597.688
-597.844
-598.021
-598.223
-598.45
-598.707
-598.995
-599.319
-599.68
-600.082
-600.523
-601.008
-601.535
-596.934
-596.945
-596.975
-597.01
-597.054
-597.106
-597.168
-597.24
-597.322
-597.416
-597.523
-597.645
-597.783
-597.941
-598.12
-598.322
-598.551
-598.807
-599.095
-599.417
-599.776
-600.173
-600.611
-601.087
-601.606
-597.008
-597.02
-597.051
-597.088
-597.133
-597.188
-597.252
-597.326
-597.411
-597.507
-597.616
-597.74
-597.88
-598.04
-598.22
-598.423
-598.652
-598.908
-599.195
-599.515
-599.871
-600.265
-600.695
-601.165
-601.674
-597.086
-597.098
-597.13
-597.167
-597.214
-597.271
-597.338
-597.414
-597.501
-597.599
-597.711
-597.836
-597.978
-598.139
-598.321
-598.525
-598.754
-599.009
-599.295
-599.613
-599.966
-600.354
-600.78
-601.24
-601.739
-597.165
-597.178
-597.21
-597.249
-597.297
-597.356
-597.425
-597.503
-597.593
-597.693
-597.806
-597.933
-598.077
-598.239
-598.422
-598.626
-598.855
-599.111
-599.394
-599.71
-600.059
-600.443
-600.86
-601.314
-601.802
-597.247
-597.26
-597.293
-597.332
-597.382
-597.442
-597.513
-597.594
-597.684
-597.787
-597.902
-598.031
-598.176
-598.339
-598.523
-598.728
-598.957
-599.211
-599.493
-599.806
-600.151
-600.529
-600.942
-601.384
-601.862
-597.331
-597.344
-597.377
-597.417
-597.467
-597.529
-597.602
-597.685
-597.778
-597.882
-597.998
-598.129
-598.275
-598.44
-598.624
-598.829
-599.058
-599.311
-599.592
-599.901
-600.242
-600.615
-601.018
-601.454
-601.918
-597.417
-597.43
-597.462
-597.502
-597.555
-597.618
-597.692
-597.777
-597.871
-597.977
-598.095
-598.227
-598.374
-598.54
-598.725
-598.93
-599.159
-599.411
-599.689
-599.995
-600.332
-600.698
-601.095
-601.519
-601.973
-597.503
-597.516
-597.549
-597.59
-597.643
-597.708
-597.783
-597.869
-597.966
-598.073
-598.192
-598.325
-598.474
-598.64
-598.825
-599.031
-599.258
-599.509
-599.785
-600.088
-600.419
-600.781
-601.168
-601.584
-602.025
-597.591
-597.605
-597.637
-597.679
-597.733
-597.798
-597.875
-597.963
-598.06
-598.169
-598.289
-598.423
-598.573
-598.74
-598.925
-599.131
-599.357
-599.606
-599.88
-600.179
-600.506
-600.86
-601.241
-601.645
-602.075
-597.682
-597.695
-597.728
-597.77
-597.824
-597.89
-597.968
-598.057
-598.156
-598.266
-598.387
-598.522
-598.672
-598.839
-599.025
-599.23
-599.456
-599.703
-599.973
-600.269
-600.591
-600.939
-601.31
-601.705
-602.121
-597.775
-597.789
-597.82
-597.862
-597.917
-597.984
-598.063
-598.153
-598.252
-598.363
-598.485
-598.621
-598.771
-598.939
-599.124
-599.329
-599.553
-599.798
-600.066
-600.358
-600.675
-601.015
-601.38
-601.762
-602.167
-597.87
-597.883
-597.915
-597.956
-598.011
-598.079
-598.158
-598.249
-598.35
-598.461
-598.584
-598.72
-598.871
-599.038
-599.223
-599.427
-599.65
-599.893
-600.157
-600.445
-600.756
-601.092
-601.445
-601.82
-602.211
-597.967
-597.98
-598.011
-598.052
-598.108
-598.175
-598.256
-598.347
-598.448
-598.56
-598.683
-598.819
-598.97
-599.138
-599.322
-599.525
-599.746
-599.987
-600.248
-600.532
-600.838
-601.165
-601.513
-601.874
-602.254
-598.066
-598.078
-598.109
-598.151
-598.205
-598.274
-598.355
-598.447
-598.549
-598.66
-598.784
-598.92
-599.071
-599.237
-599.422
-599.623
-599.842
-600.08
-600.338
-600.618
-600.918
-601.24
-601.576
-601.93
-602.296
-598.167
-598.18
-598.21
-598.251
-598.307
-598.375
-598.456
-598.549
-598.65
-598.763
-598.886
-599.022
-599.172
-599.338
-599.521
-599.722
-599.939
-600.174
-600.428
-600.703
-600.999
-601.311
-601.642
-601.983
-602.338
-598.271
-598.284
-598.314
-598.355
-598.41
-598.479
-598.56
-598.652
-598.755
-598.867
-598.99
-599.126
-599.275
-599.441
-599.623
-599.821
-600.036
-600.268
-600.519
-600.789
-601.078
-601.385
-601.705
-602.038
-602.38
-598.378
-598.39
-598.42
-598.461
-598.516
-598.585
-598.666
-598.759
-598.861
-598.974
-599.097
-599.231
-599.38
-599.545
-599.725
-599.921
-600.134
-600.363
-600.61
-600.875
-601.159
-601.458
-601.771
-602.091
-602.423
-598.488
-598.5
-598.529
-598.57
-598.625
-598.694
-598.776
-598.869
-598.972
-599.083
-599.206
-599.34
-599.488
-599.651
-599.829
-600.024
-600.233
-600.459
-600.701
-600.962
-601.239
-601.533
-601.835
-602.148
-602.466
-598.601
-598.612
-598.641
-598.681
-598.737
-598.806
-598.888
-598.982
-599.084
-599.196
-599.317
-599.451
-599.598
-599.759
-599.936
-600.128
-600.335
-600.557
-600.795
-601.05
-601.322
-601.607
-601.903
-602.203
-602.512
-598.717
-598.728
-598.756
-598.797
-598.852
-598.922
-599.004
-599.097
-599.2
-599.311
-599.433
-599.565
-599.71
-599.87
-600.045
-600.235
-600.438
-600.656
-600.89
-601.141
-601.406
-601.685
-601.97
-602.264
-602.56
-598.836
-598.847
-598.874
-598.914
-598.97
-599.04
-599.123
-599.217
-599.319
-599.431
-599.551
-599.682
-599.827
-599.985
-600.158
-600.344
-600.545
-600.759
-600.988
-601.233
-601.493
-601.764
-602.043
-602.324
-602.611
-598.958
-598.968
-598.995
-599.035
-599.091
-599.162
-599.245
-599.339
-599.442
-599.553
-599.673
-599.804
-599.946
-600.103
-600.273
-600.457
-600.654
-600.865
-601.089
-601.329
-601.582
-601.847
-602.116
-602.39
-602.664
-599.084
-599.094
-599.12
-599.16
-599.216
-599.287
-599.371
-599.465
-599.568
-599.679
-599.798
-599.928
-600.07
-600.225
-600.393
-600.574
-600.768
-600.974
-601.194
-601.429
-601.676
-601.932
-602.195
-602.457
-602.723
-599.214
-599.223
-599.249
-599.289
-599.344
-599.415
-599.5
-599.594
-599.697
-599.808
-599.928
-600.057
-600.197
-600.351
-600.517
-600.695
-600.886
-601.088
-601.303
-601.532
-601.773
-602.024
-602.276
-602.532
-602.786
-599.349
-599.358
-599.382
-599.421
-599.477
-599.548
-599.632
-599.727
-599.83
-599.941
-600.06
-600.189
-600.328
-600.48
-600.645
-600.821
-601.008
-601.206
-601.417
-601.641
-601.876
-602.118
-602.365
-602.609
-602.855
-599.488
-599.497
-599.521
-599.56
-599.614
-599.685
-599.769
-599.864
-599.967
-600.077
-600.196
-600.324
-600.463
-600.614
-600.777
-600.951
-601.135
-601.33
-601.537
-601.755
-601.984
-602.221
-602.457
-602.695
-602.93
-599.634
-599.642
-599.665
-599.703
-599.758
-599.828
-599.911
-600.006
-600.108
-600.219
-600.336
-600.464
-600.602
-600.752
-600.914
-601.086
-601.267
-601.459
-601.662
-601.875
-602.099
-602.328
-602.559
-602.786
-603.013
-599.785
-599.792
-599.815
-599.853
-599.906
-599.976
-600.06
-600.154
-600.256
-600.365
-600.482
-600.609
-600.746
-600.895
-601.055
-601.226
-601.405
-601.594
-601.793
-602.003
-602.22
-602.444
-602.666
-602.887
-603.103
-599.943
-599.95
-599.972
-600.009
-600.063
-600.132
-600.215
-600.308
-600.409
-600.518
-600.634
-600.76
-600.896
-601.044
-601.203
-601.371
-601.549
-601.736
-601.931
-602.137
-602.35
-602.567
-602.784
-602.994
-603.203
-600.108
-600.115
-600.137
-600.173
-600.226
-600.295
-600.377
-600.47
-600.571
-600.678
-600.794
-600.918
-601.053
-601.2
-601.357
-601.524
-601.7
-601.884
-602.077
-602.279
-602.487
-602.7
-602.908
-603.114
-603.313
-600.281
-600.288
-600.309
-600.346
-600.398
-600.466
-600.548
-600.641
-600.741
-600.848
-600.962
-601.086
-601.22
-601.365
-601.521
-601.686
-601.86
-602.041
-602.232
-602.43
-602.635
-602.841
-603.045
-603.242
-603.435
-600.462
-600.468
-600.49
-600.527
-600.579
-600.647
-600.729
-600.821
-600.92
-601.026
-601.141
-601.263
-601.396
-601.54
-601.694
-601.858
-602.029
-602.209
-602.396
-602.591
-602.792
-602.994
-603.191
-603.383
-603.568
-600.651
-600.658
-600.679
-600.716
-600.769
-600.837
-600.919
-601.011
-601.11
-601.216
-601.329
-601.451
-601.583
-601.726
-601.879
-602.041
-602.21
-602.387
-602.571
-602.763
-602.96
-603.157
-603.351
-603.535
-603.714
-600.848
-600.856
-600.878
-600.916
-600.968
-601.037
-601.119
-601.211
-601.311
-601.416
-601.53
-601.651
-601.782
-601.924
-602.076
-602.237
-602.404
-602.578
-602.76
-602.948
-603.141
-603.334
-603.521
-603.701
-603.872
-601.053
-601.061
-601.084
-601.124
-601.178
-601.247
-601.33
-601.422
-601.521
-601.628
-601.74
-601.862
-601.993
-602.135
-602.286
-602.445
-602.611
-602.783
-602.961
-603.146
-603.335
-603.523
-603.706
-603.879
-604.045
-601.263
-601.272
-601.298
-601.34
-601.395
-601.466
-601.549
-601.642
-601.743
-601.849
-601.963
-602.084
-602.216
-602.357
-602.508
-602.666
-602.83
-603
-603.176
-603.357
-603.542
-603.726
-603.902
-604.071
-604.23
-601.476
-601.487
-601.515
-601.561
-601.619
-601.691
-601.776
-601.871
-601.972
-602.08
-602.194
-602.316
-602.448
-602.59
-602.74
-602.897
-603.06
-603.228
-603.401
-603.58
-603.761
-603.94
-604.112
-604.274
-604.427
-601.687
-601.702
-601.735
-601.784
-601.844
-601.92
-602.007
-602.103
-602.206
-602.314
-602.431
-602.554
-602.687
-602.829
-602.979
-603.136
-603.298
-603.464
-603.635
-603.811
-603.988
-604.163
-604.329
-604.486
-604.633
-601.893
-601.912
-601.949
-602.004
-602.068
-602.146
-602.236
-602.334
-602.438
-602.55
-602.667
-602.792
-602.926
-603.069
-603.22
-603.377
-603.538
-603.703
-603.872
-604.044
-604.218
-604.388
-604.551
-604.701
-604.842
-602.083
-602.107
-602.15
-602.212
-602.281
-602.362
-602.454
-602.555
-602.662
-602.775
-602.895
-603.022
-603.158
-603.302
-603.454
-603.611
-603.771
-603.935
-604.102
-604.272
-604.442
-604.609
-604.765
-604.911
-605.046
-602.25
-602.279
-602.329
-602.397
-602.472
-602.557
-602.651
-602.755
-602.864
-602.98
-603.102
-603.232
-603.37
-603.516
-603.668
-603.825
-603.985
-604.148
-604.313
-604.481
-604.648
-604.81
-604.962
-605.101
-605.231
-602.38
-602.415
-602.472
-602.548
-602.627
-602.715
-602.813
-602.918
-603.03
-603.148
-603.273
-603.405
-603.545
-603.693
-603.847
-604.004
-604.164
-604.325
-604.489
-604.654
-604.818
-604.976
-605.123
-605.257
-605.381
-602.459
-602.499
-602.562
-602.644
-602.728
-602.818
-602.918
-603.025
-603.139
-603.259
-603.387
-603.522
-603.664
-603.814
-603.969
-604.127
-604.286
-604.447
-604.608
-604.771
-604.932
-605.085
-605.228
-605.356
-605.474
-602.467
-602.51
-602.579
-602.667
-602.752
-602.845
-602.945
-603.053
-603.168
-603.291
-603.421
-603.558
-603.702
-603.854
-604.01
-604.168
-604.327
-604.487
-604.647
-604.807
-604.963
-605.113
-605.25
-605.374
-605.485
-602.388
-602.433
-602.503
-602.591
-602.679
-602.77
-602.87
-602.978
-603.094
-603.218
-603.35
-603.489
-603.635
-603.788
-603.944
-604.103
-604.261
-604.419
-604.577
-604.734
-604.888
-605.032
-605.164
-605.282
-605.388
-602.203
-602.246
-602.313
-602.401
-602.484
-602.575
-602.672
-602.779
-602.895
-603.019
-603.152
-603.292
-603.439
-603.592
-603.749
-603.907
-604.064
-604.22
-604.376
-604.529
-604.678
-604.819
-604.945
-605.056
-605.157
-601.905
-601.94
-601.999
-602.079
-602.159
-602.244
-602.337
-602.441
-602.555
-602.679
-602.812
-602.952
-603.1
-603.252
-603.408
-603.564
-603.719
-603.873
-604.025
-604.175
-604.32
-604.454
-604.575
-604.68
-604.775
-601.494
-601.513
-601.559
-601.63
-601.7
-601.779
-601.867
-601.967
-602.079
-602.201
-602.333
-602.472
-602.618
-602.768
-602.922
-603.075
-603.227
-603.377
-603.525
-603.671
-603.81
-603.939
-604.053
-604.153
-604.243
-600.993
-600.994
-601.02
-601.075
-601.136
-601.207
-601.289
-601.384
-601.492
-601.612
-601.742
-601.878
-602.021
-602.168
-602.318
-602.467
-602.615
-602.76
-602.903
-603.043
-603.177
-603.299
-603.407
-603.501
-603.586
-600.45
-600.431
-600.433
-600.472
-600.521
-600.585
-600.661
-600.752
-600.857
-600.973
-601.099
-601.232
-601.37
-601.512
-601.656
-601.8
-601.943
-602.083
-602.22
-602.354
-602.481
-602.597
-602.698
-602.786
-602.869
-599.935
-599.901
-599.882
-599.905
-599.947
-600.005
-600.077
-600.163
-600.264
-600.377
-600.499
-600.626
-600.759
-600.894
-601.032
-601.17
-601.306
-601.44
-601.572
-601.699
-601.82
-601.928
-602.022
-602.107
-602.187
-599.527
-599.491
-599.464
-599.481
-599.517
-599.573
-599.642
-599.725
-599.823
-599.933
-600.05
-600.172
-600.297
-600.426
-600.556
-600.687
-600.817
-600.945
-601.07
-601.191
-601.305
-601.407
-601.496
-601.577
-601.657
-599.292
-599.276
-599.26
-599.278
-599.316
-599.37
-599.438
-599.519
-599.614
-599.721
-599.833
-599.95
-600.069
-600.191
-600.315
-600.44
-600.563
-600.685
-600.805
-600.92
-601.028
-601.124
-601.21
-601.29
-601.37
-599.242
-599.261
-599.267
-599.295
-599.334
-599.388
-599.455
-599.535
-599.628
-599.731
-599.84
-599.952
-600.066
-600.183
-600.302
-600.422
-600.541
-600.658
-600.773
-600.884
-600.987
-601.08
-601.165
-601.246
-601.326
-599.303
-599.346
-599.373
-599.408
-599.45
-599.503
-599.57
-599.65
-599.741
-599.841
-599.946
-600.054
-600.165
-600.279
-600.394
-600.51
-600.626
-600.74
-600.851
-600.958
-601.058
-601.15
-601.236
-601.319
-601.399
-599.359
-599.399
-599.432
-599.473
-599.518
-599.572
-599.639
-599.716
-599.805
-599.9
-600.002
-600.107
-600.216
-600.327
-600.44
-600.553
-600.667
-600.779
-600.888
-600.992
-601.09
-601.182
-601.27
-601.355
-601.432
-599.344
-599.391
-599.428
-599.474
-599.523
-599.58
-599.645
-599.721
-599.804
-599.897
-599.994
-600.099
-600.206
-600.317
-600.429
-600.541
-600.653
-600.764
-600.872
-600.975
-601.072
-601.165
-601.254
-601.336
-601.412
-599.289
-599.371
-599.424
-599.474
-599.526
-599.583
-599.65
-599.724
-599.807
-599.896
-599.994
-600.097
-600.204
-600.314
-600.426
-600.538
-600.649
-600.758
-600.865
-600.967
-601.065
-601.158
-601.246
-601.327
-601.4
-609.389
-609.4
-609.423
-609.456
-609.497
-609.542
-609.583
-609.614
-609.629
-609.633
-609.632
-609.624
-609.61
-609.592
-609.567
-609.534
-609.493
-609.449
-609.406
-609.369
-609.337
-609.31
-609.293
-609.287
-609.286
-609.381
-609.392
-609.414
-609.45
-609.49
-609.526
-609.559
-609.583
-609.6
-609.609
-609.612
-609.605
-609.593
-609.576
-609.552
-609.522
-609.486
-609.446
-609.409
-609.377
-609.347
-609.319
-609.298
-609.288
-609.287
-609.353
-609.367
-609.39
-609.43
-609.468
-609.501
-609.528
-609.546
-609.559
-609.569
-609.577
-609.578
-609.571
-609.554
-609.53
-609.5
-609.467
-609.433
-609.4
-609.373
-609.347
-609.322
-609.3
-609.286
-609.283
-609.308
-609.33
-609.361
-609.401
-609.436
-609.464
-609.489
-609.509
-609.525
-609.538
-609.547
-609.549
-609.542
-609.526
-609.505
-609.477
-609.444
-609.411
-609.382
-609.357
-609.336
-609.316
-609.295
-609.278
-609.274
-609.258
-609.29
-609.331
-609.373
-609.408
-609.437
-609.461
-609.482
-609.498
-609.513
-609.524
-609.53
-609.526
-609.51
-609.483
-609.451
-609.417
-609.386
-609.358
-609.336
-609.318
-609.302
-609.284
-609.266
-609.259
-609.201
-609.241
-609.292
-609.343
-609.385
-609.42
-609.447
-609.466
-609.48
-609.492
-609.502
-609.511
-609.511
-609.492
-609.461
-609.426
-609.39
-609.358
-609.332
-609.313
-609.297
-609.282
-609.266
-609.249
-609.238
-609.153
-609.203
-609.258
-609.316
-609.368
-609.412
-609.445
-609.467
-609.483
-609.494
-609.5
-609.497
-609.484
-609.46
-609.431
-609.399
-609.364
-609.332
-609.307
-609.29
-609.276
-609.262
-609.244
-609.225
-609.212
-609.129
-609.19
-609.254
-609.323
-609.39
-609.448
-609.492
-609.518
-609.531
-609.535
-609.532
-609.517
-609.489
-609.454
-609.417
-609.38
-609.345
-609.314
-609.29
-609.272
-609.258
-609.242
-609.221
-609.198
-609.18
-609.129
-609.209
-609.29
-609.373
-609.457
-609.532
-609.591
-609.627
-609.641
-609.638
-609.625
-609.601
-609.56
-609.507
-609.45
-609.395
-609.347
-609.309
-609.281
-609.258
-609.237
-609.217
-609.194
-609.167
-609.144
-609.155
-609.26
-609.376
-609.484
-609.586
-609.676
-609.747
-609.793
-609.808
-609.8
-609.778
-609.743
-609.692
-609.624
-609.545
-609.462
-609.384
-609.319
-609.272
-609.241
-609.215
-609.191
-609.164
-609.131
-609.105
-609.2
-609.332
-609.502
-609.645
-609.771
-609.878
-609.96
-610.009
-610.019
-610
-609.961
-609.909
-609.842
-609.757
-609.66
-609.553
-609.445
-609.348
-609.273
-609.228
-609.197
-609.166
-609.131
-609.092
-609.063
-609.241
-609.393
-609.632
-609.817
-609.984
-610.122
-610.217
-610.26
-610.254
-610.213
-610.148
-610.066
-609.97
-609.86
-609.741
-609.617
-609.492
-609.375
-609.278
-609.216
-609.176
-609.137
-609.091
-609.05
-609.018
-609.231
-609.397
-609.72
-609.965
-610.191
-610.379
-610.498
-610.529
-610.488
-610.408
-610.304
-610.18
-610.044
-609.903
-609.764
-609.631
-609.504
-609.385
-609.281
-609.207
-609.155
-609.103
-609.049
-609.006
-608.969
-609.107
-609.296
-609.736
-610.079
-610.388
-610.636
-610.773
-610.777
-610.687
-610.555
-610.398
-610.229
-610.06
-609.897
-609.746
-609.61
-609.489
-609.381
-609.285
-609.205
-609.137
-609.07
-609.007
-608.953
-608.911
-608.808
-609.053
-609.658
-610.162
-610.594
-610.897
-611.008
-610.954
-610.81
-610.631
-610.434
-610.236
-610.041
-609.857
-609.693
-609.555
-609.444
-609.351
-609.268
-609.191
-609.117
-609.041
-608.969
-608.904
-608.863
-608.284
-608.596
-609.474
-610.194
-610.78
-611.097
-611.117
-611.012
-610.854
-610.656
-610.424
-610.183
-609.954
-609.751
-609.578
-609.444
-609.347
-609.278
-609.219
-609.16
-609.095
-609.021
-608.942
-608.874
-608.838
-607.499
-607.82
-609.21
-610.098
-610.883
-611.155
-611.13
-611.019
-610.863
-610.626
-610.342
-610.059
-609.803
-609.584
-609.406
-609.276
-609.197
-609.157
-609.135
-609.113
-609.075
-609.009
-608.922
-608.848
-608.812
-606.386
-606.791
-608.771
-609.832
-610.711
-611.106
-611.141
-611.03
-610.837
-610.545
-610.217
-609.907
-609.638
-609.41
-609.228
-609.098
-609.028
-609.012
-609.031
-609.059
-609.057
-608.997
-608.899
-608.809
-608.761
-604.559
-605.106
-607.406
-609.157
-610.236
-610.944
-611.106
-611.031
-610.789
-610.449
-610.105
-609.797
-609.535
-609.315
-609.135
-609.002
-608.926
-608.915
-608.954
-609.016
-609.042
-608.994
-608.889
-608.778
-608.707
-602.365
-603.165
-605.233
-607.495
-609.096
-610.358
-610.902
-610.93
-610.678
-610.342
-610.019
-609.745
-609.518
-609.327
-609.168
-609.044
-608.969
-608.949
-608.986
-609.05
-609.079
-609.035
-608.924
-608.791
-608.694
-599.372
-601.129
-603.227
-605.964
-608.162
-609.776
-610.573
-610.657
-610.42
-610.122
-609.871
-609.676
-609.522
-609.39
-609.274
-609.181
-609.122
-609.111
-609.156
-609.217
-609.234
-609.176
-609.051
-608.895
-608.773
-598.96
-600.455
-602.325
-605.039
-607.425
-609.148
-609.983
-610.124
-609.986
-609.831
-609.73
-609.667
-609.621
-609.569
-609.508
-609.452
-609.417
-609.434
-609.509
-609.577
-609.576
-609.487
-609.33
-609.143
-608.993
-600.257
-601.77
-603.199
-605.005
-606.816
-608.247
-609.035
-609.339
-609.437
-609.514
-609.609
-609.709
-609.793
-609.843
-609.856
-609.854
-609.868
-609.947
-610.073
-610.158
-610.142
-610.017
-609.821
-609.602
-609.424
-600.851
-602.181
-603.419
-604.711
-606.011
-607.135
-607.935
-608.465
-608.857
-609.196
-609.508
-609.788
-610.021
-610.189
-610.295
-610.368
-610.466
-610.647
-610.858
-610.994
-610.989
-610.846
-610.621
-610.374
-610.172
-600.902
-601.972
-603.053
-604.148
-605.245
-606.262
-607.127
-607.846
-608.463
-609.014
-609.513
-609.956
-610.333
-610.628
-610.842
-611.012
-611.225
-611.537
-611.873
-612.112
-612.176
-612.068
-611.857
-611.62
-611.435
-600.896
-601.804
-602.773
-603.776
-604.789
-605.77
-606.684
-607.517
-608.28
-608.983
-609.63
-610.217
-610.734
-611.164
-611.505
-611.801
-612.158
-612.632
-613.14
-613.549
-613.77
-613.794
-613.695
-613.548
-613.37
-600.946
-601.775
-602.672
-603.617
-604.584
-605.548
-606.487
-607.386
-608.242
-609.057
-609.827
-610.544
-611.199
-611.776
-612.269
-612.723
-613.254
-613.931
-614.675
-615.35
-615.855
-616.179
-616.408
-616.647
-616.968
-601.021
-601.806
-602.66
-603.565
-604.504
-605.459
-606.414
-607.358
-608.284
-609.191
-610.07
-610.912
-611.708
-612.445
-613.119
-613.764
-614.501
-615.428
-616.49
-617.557
-618.529
-619.405
-620.296
-621.327
-622.53
-601.099
-601.856
-602.678
-603.556
-604.478
-605.43
-606.401
-607.383
-608.371
-609.359
-610.34
-611.304
-612.243
-613.151
-614.028
-614.897
-615.877
-617.103
-618.574
-620.193
-621.89
-623.733
-626.027
-629.184
-635.026
-601.181
-601.917
-602.717
-603.577
-604.488
-605.441
-606.429
-607.444
-608.484
-609.547
-610.623
-611.705
-612.786
-613.867
-614.959
-616.083
-617.347
-618.915
-620.876
-623.21
-625.932
-629.224
-633.917
-639.786
-658.237
-601.265
-601.986
-602.771
-603.618
-604.522
-605.477
-606.479
-607.523
-608.611
-609.739
-610.904
-612.098
-613.316
-614.567
-615.872
-617.273
-618.857
-620.8
-623.292
-626.446
-630.481
-635.839
-645.392
-660.881
-718.377
-601.35
-602.06
-602.834
-603.671
-604.57
-605.527
-606.541
-607.611
-608.739
-609.927
-611.171
-612.468
-613.815
-615.226
-616.736
-618.407
-620.327
-622.661
-625.662
-629.586
-634.82
-641.901
-653.537
-670.897
-702.661
-601.434
-602.135
-602.9
-603.73