/*--------------------------------*- C++ -*----------------------------------*\
  =========                 |
  \\      /  F ield         | OpenFOAM: The Open Source CFD Toolbox
   \\    /   O peration     | Website:  https://openfoam.org
    \\  /    A nd           | Version:  13
     \\/     M anipulation  |
\*---------------------------------------------------------------------------*/
FoamFile
{
    format      ascii;
    class       surfaceScalarField;
    location    "1";
    object      phi;
}
// * * * * * * * * * * * * * * * * * * * * * * * * * * * * * * * * * * * * * //

dimensions      [0 3 -1 0 0 0 0];

internalField   nonuniform List<scalar> 
12590
(
-1.69849e-08
1.11523e-08
-3.39892e-08
1.163e-08
-4.89485e-08
8.93559e-09
-5.93574e-08
5.73362e-09
-6.81894e-08
2.7967e-09
-7.42359e-08
1.13307e-09
-8.08639e-08
-1.76457e-10
-8.48436e-08
-1.07367e-09
-8.88579e-08
-4.0951e-09
-8.67003e-08
-8.08277e-09
-8.29318e-08
-1.21384e-08
-7.54036e-08
-1.33483e-08
-7.03579e-08
-1.29137e-08
-6.46029e-08
-1.15411e-08
-6.14261e-08
-1.057e-08
-5.70598e-08
-1.00121e-08
-5.34356e-08
-1.04633e-08
-4.71061e-08
-1.18067e-08
-3.94748e-08
-1.37694e-08
-2.92559e-08
-1.56501e-08
-1.78929e-08
-1.6856e-08
-6.89793e-09
-1.59243e-08
6.94287e-11
-1.30399e-08
1.97164e-09
-7.80684e-09
2.95262e-10
-1.62633e-08
2.16725e-08
-3.23811e-08
2.22358e-08
-4.74252e-08
1.8105e-08
-6.10103e-08
1.32023e-08
-7.48938e-08
8.56615e-09
-7.76033e-08
-3.67337e-09
-6.59056e-08
-1.929e-08
-4.26052e-08
-3.00594e-08
-1.79366e-08
-3.4138e-08
3.62817e-09
-3.43406e-08
1.9379e-08
-3.27993e-08
3.16234e-08
-3.00212e-08
4.04806e-08
-2.65844e-08
4.73769e-08
-2.283e-08
5.10575e-08
-1.88863e-08
5.21054e-08
-1.52402e-08
4.95433e-08
-1.23583e-08
4.40999e-08
-1.04983e-08
3.5645e-08
-9.78203e-09
2.6062e-08
-1.04328e-08
1.69537e-08
-1.22425e-08
1.01106e-08
-1.39396e-08
5.42502e-09
-1.33406e-08
1.50678e-09
-9.91212e-09
2.09485e-10
-1.50595e-08
3.13575e-08
-2.92853e-08
3.12906e-08
-4.37804e-08
2.66261e-08
-6.06219e-08
2.23626e-08
-6.62497e-08
5.34872e-09
-4.96589e-08
-2.68849e-08
-2.5758e-08
-4.85931e-08
-2.76672e-09
-5.75687e-08
1.74686e-08
-5.8833e-08
3.53598e-08
-5.62498e-08
5.03083e-08
-5.19092e-08
6.29603e-08
-4.66882e-08
7.32637e-08
-4.10695e-08
8.18742e-08
-3.54329e-08
8.81634e-08
-2.91884e-08
9.19483e-08
-2.27142e-08
9.24832e-08
-1.65887e-08
8.93703e-08
-1.08426e-08
8.18168e-08
-5.78599e-09
6.98775e-08
-2.03938e-09
5.40875e-08
-7.93237e-11
3.64219e-08
2.96988e-10
1.83787e-08
-1.32928e-10
4.41914e-09
-7.93758e-10
3.06381e-09
-1.48862e-08
4.09856e-08
-2.84881e-08
3.9955e-08
-4.30755e-08
3.45393e-08
-5.95423e-08
3.00318e-08
-4.93884e-08
-1.23051e-08
-2.58816e-08
-5.55258e-08
-2.77345e-09
-7.62586e-08
1.81714e-08
-8.24198e-08
3.63695e-08
-8.08675e-08
5.226e-08
-7.58705e-08
6.57557e-08
-6.93114e-08
7.73588e-08
-6.20699e-08
8.69592e-08
-5.46908e-08
9.50923e-08
-4.74879e-08
1.01599e-07
-3.96394e-08
1.06189e-07
-3.09435e-08
1.08186e-07
-2.21408e-08
1.0716e-07
-1.316e-08
1.02262e-07
-4.18933e-09
9.27533e-08
4.23628e-09
7.80784e-08
1.15049e-08
5.79262e-08
1.70495e-08
3.35481e-08
2.08535e-08
9.2868e-09
1.8769e-08
1.08962e-08
-1.62535e-08
5.20444e-08
-3.07201e-08
4.92832e-08
-4.72715e-08
4.35065e-08
-5.88982e-08
3.23792e-08
-3.70624e-08
-4.03493e-08
-1.13991e-08
-8.56515e-08
1.18212e-08
-1.03359e-07
3.21506e-08
-1.0629e-07
4.95926e-08
-1.01982e-07
6.48484e-08
-9.45672e-08
7.78207e-08
-8.59389e-08
8.88876e-08
-7.68492e-08
9.80375e-08
-6.77488e-08
1.05643e-07
-5.89984e-08
1.11704e-07
-4.96106e-08
1.1599e-07
-3.8848e-08
1.17843e-07
-2.74933e-08
1.16861e-07
-1.54387e-08
1.12282e-07
-2.82814e-09
1.03476e-07
9.92956e-09
8.95806e-08
2.23316e-08
6.99427e-08
3.40131e-08
4.27321e-08
4.42715e-08
1.33769e-08
4.42174e-08
2.28076e-08
-1.88464e-08
6.56058e-08
-3.51836e-08
6.04052e-08
-5.59889e-08
5.6316e-08
-5.75547e-08
2.4871e-08
-2.88615e-08
-7.42883e-08
-1.36694e-09
-1.1706e-07
2.22906e-08
-1.30744e-07
4.28879e-08
-1.30224e-07
6.07079e-08
-1.231e-07
7.61093e-08
-1.13356e-07
8.92158e-08
-1.0262e-07
1.00344e-07
-9.15479e-08
1.09366e-07
-8.06133e-08
1.16657e-07
-7.01682e-08
1.22156e-07
-5.89716e-08
1.25776e-07
-4.60415e-08
1.26909e-07
-3.20475e-08
1.251e-07
-1.68258e-08
1.19691e-07
-5.13865e-10
1.1013e-07
1.6497e-08
9.5866e-08
3.38314e-08
7.56672e-08
5.12515e-08
4.80806e-08
6.90755e-08
1.62535e-08
7.2118e-08
3.76759e-08
-2.02296e-08
8.06777e-08
-3.79939e-08
7.28372e-08
-6.22923e-08
7.31087e-08
-5.15191e-08
6.41852e-09
-2.15214e-08
-1.09014e-07
6.53072e-09
-1.48835e-07
3.11052e-08
-1.58626e-07
5.2723e-08
-1.55015e-07
7.15115e-08
-1.45238e-07
8.78687e-08
-1.32891e-07
1.01711e-07
-1.19855e-07
1.13242e-07
-1.06656e-07
1.22464e-07
-9.35968e-08
1.29653e-07
-8.12054e-08
1.3471e-07
-6.78158e-08
1.37626e-07
-5.24641e-08
1.37864e-07
-3.56001e-08
1.34945e-07
-1.69821e-08
1.2824e-07
3.22407e-09
1.17349e-07
2.4577e-08
1.01745e-07
4.66826e-08
8.10235e-08
6.96724e-08
5.24483e-08
9.45543e-08
1.93021e-08
1.01873e-07
5.56197e-08
-1.78846e-08
9.37652e-08
-3.66534e-08
8.64457e-08
-6.86268e-08
9.79537e-08
-4.68222e-08
-2.19532e-08
-1.54318e-08
-1.44595e-07
1.39486e-08
-1.81575e-07
4.00523e-08
-1.8808e-07
6.33786e-08
-1.814e-07
8.38685e-08
-1.68722e-07
1.01431e-07
-1.53672e-07
1.16262e-07
-1.38071e-07
1.28546e-07
-1.22366e-07
1.38114e-07
-1.0688e-07
1.45314e-07
-9.22029e-08
1.5005e-07
-7.62572e-08
1.52337e-07
-5.81623e-08
1.51703e-07
-3.81586e-08
1.47642e-07
-1.58603e-08
1.39565e-07
8.53234e-09
1.27054e-07
3.44319e-08
1.09952e-07
6.13893e-08
8.77128e-08
8.94312e-08
5.82456e-08
1.21574e-07
2.30379e-08
1.33827e-07
7.73154e-08
-1.21842e-08
1.01531e-07
-3.53535e-08
1.03762e-07
-8.24151e-08
1.37283e-07
-4.69205e-08
-6.31316e-08
-9.81492e-09
-1.85625e-07
2.26281e-08
-2.17333e-07
5.12957e-08
-2.19695e-07
7.66225e-08
-2.09685e-07
9.86669e-08
-1.93935e-07
1.17694e-07
-1.75708e-07
1.33687e-07
-1.57268e-07
1.46675e-07
-1.38825e-07
1.56684e-07
-1.20511e-07
1.63914e-07
-1.03173e-07
1.6841e-07
-8.43472e-08
1.70141e-07
-6.31959e-08
1.68717e-07
-3.9763e-08
1.63594e-07
-1.351e-08
1.54135e-07
1.53819e-08
1.39992e-07
4.61203e-08
1.20932e-07
7.80598e-08
9.70945e-08
1.11239e-07
6.57412e-08
1.50434e-07
2.76878e-08
1.68795e-07
1.03796e-07
-8.36614e-09
1.05335e-07
-3.62168e-08
1.24428e-07
-9.56481e-08
1.87513e-07
-4.32339e-08
-1.20792e-07
-5.51721e-10
-2.31897e-07
3.52303e-08
-2.56143e-07
6.60583e-08
-2.5366e-07
9.31517e-08
-2.39655e-07
1.16801e-07
-2.20376e-07
1.37008e-07
-1.99007e-07
1.53987e-07
-1.77479e-07
1.67759e-07
-1.55865e-07
1.78183e-07
-1.34482e-07
1.85473e-07
-1.14093e-07
1.8979e-07
-9.21312e-08
1.91072e-07
-6.76276e-08
1.88965e-07
-4.05455e-08
1.82891e-07
-1.00552e-08
1.72125e-07
2.36907e-08
1.56238e-07
5.96742e-08
1.35185e-07
9.70295e-08
1.08987e-07
1.35307e-07
7.51561e-08
1.81941e-07
3.3457e-08
2.07923e-07
1.35947e-07
-1.45896e-08
1.14674e-07
-3.71826e-08
1.38118e-07
-9.71393e-08
2.35868e-07
-3.12877e-08
-1.91451e-07
1.49488e-08
-2.81609e-07
5.26764e-08
-2.96971e-07
8.51382e-08
-2.8881e-07
1.13387e-07
-2.70703e-07
1.37969e-07
-2.47932e-07
1.59329e-07
-2.23184e-07
1.772e-07
-1.9831e-07
1.91538e-07
-1.73456e-07
2.02471e-07
-1.48764e-07
2.09871e-07
-1.24958e-07
2.1408e-07
-9.96174e-08
2.15025e-07
-7.15647e-08
2.12429e-07
-4.06573e-08
2.05551e-07
-5.66581e-09
1.93543e-07
3.33953e-08
1.75921e-07
7.51458e-08
1.52449e-07
1.18368e-07
1.23643e-07
1.62257e-07
8.69031e-08
2.16826e-07
4.04224e-08
2.51493e-07
1.75395e-07
-3.08233e-08
1.40398e-07
-4.87213e-08
1.46097e-07
-6.69202e-08
2.41624e-07
-6.2428e-09
-2.56472e-07
3.79568e-08
-3.28947e-07
7.55411e-08
-3.37207e-07
1.08157e-07
-3.24269e-07
1.37009e-07
-3.02063e-07
1.6243e-07
-2.758e-07
1.8448e-07
-2.4795e-07
2.02969e-07
-2.19645e-07
2.18075e-07
-1.91396e-07
2.29528e-07
-1.63301e-07
2.37071e-07
-1.35654e-07
2.41163e-07
-1.06719e-07
2.41937e-07
-7.50862e-08
2.39087e-07
-4.03311e-08
2.31669e-07
-5.42026e-10
2.18536e-07
4.43859e-08
1.99032e-07
9.25864e-08
1.731e-07
1.42462e-07
1.41282e-07
1.92302e-07
1.00576e-07
2.55173e-07
4.9465e-08
3.00783e-07
2.23519e-07
-4.78238e-08
1.83018e-07
-6.76648e-08
1.57893e-07
-1.08034e-08
1.75266e-07
2.71031e-08
-2.97964e-07
6.60788e-08
-3.70422e-07
1.02195e-07
-3.75884e-07
1.34934e-07
-3.58947e-07
1.6404e-07
-3.33485e-07
1.89874e-07
-3.03931e-07
2.12536e-07
-2.72866e-07
2.31705e-07
-2.41098e-07
2.47382e-07
-2.09633e-07
2.59354e-07
-1.77909e-07
2.67056e-07
-1.46105e-07
2.7102e-07
-1.13356e-07
2.71847e-07
-7.83539e-08
2.691e-07
-3.98678e-08
2.61488e-07
4.9813e-09
2.47372e-07
5.64737e-08
2.26024e-07
1.12035e-07
1.97189e-07
1.69364e-07
1.61773e-07
2.25872e-07
1.17378e-07
2.98388e-07
5.95424e-08
3.55625e-07
2.82525e-07
-4.693e-08
2.25974e-07
-6.53408e-08
1.70805e-07
2.83122e-08
7.53574e-08
5.76238e-08
-3.29435e-07
9.50858e-08
-4.10213e-07
1.31497e-07
-4.13719e-07
1.64277e-07
-3.94151e-07
1.94247e-07
-3.64998e-07
2.20708e-07
-3.32396e-07
2.4399e-07
-2.97963e-07
2.63639e-07
-2.62954e-07
2.79774e-07
-2.27864e-07
2.91876e-07
-1.92441e-07
2.99642e-07
-1.56328e-07
3.03441e-07
-1.19611e-07
3.04598e-07
-8.17691e-08
3.02452e-07
-3.98143e-08
2.95134e-07
1.03797e-08
2.80443e-07
6.93198e-08
2.57193e-07
1.33562e-07
2.25245e-07
1.99686e-07
1.86027e-07
2.63977e-07
1.3553e-07
3.4646e-07
7.22327e-08
4.18498e-07
3.536e-07
-2.52678e-08
2.48545e-07
-5.05043e-08
1.91928e-07
4.41025e-08
-2.15928e-08
8.26819e-08
-3.70826e-07
1.23924e-07
-4.52165e-07
1.60969e-07
-4.53697e-07
1.96022e-07
-4.29885e-07
2.26738e-07
-3.9844e-07
2.54995e-07
-3.61922e-07
2.78963e-07
-3.24426e-07
2.99781e-07
-2.85732e-07
3.15809e-07
-2.46534e-07
3.27955e-07
-2.07146e-07
3.35364e-07
-1.66525e-07
3.38262e-07
-1.25205e-07
3.39619e-07
-8.54906e-08
3.38432e-07
-4.07227e-08
3.3208e-07
1.49325e-08
3.17479e-07
8.23763e-08
2.9257e-07
1.5712e-07
2.57357e-07
2.3399e-07
2.13183e-07
3.06912e-07
1.58582e-07
4.01887e-07
8.66129e-08
4.87846e-07
4.41126e-07
-5.33978e-09
2.50363e-07
-4.44251e-08
2.28804e-07
4.91892e-08
-1.21128e-07
1.04833e-07
-4.26431e-07
1.48588e-07
-5.00638e-07
1.90804e-07
-4.94727e-07
2.26192e-07
-4.70201e-07
2.61377e-07
-4.33677e-07
2.90673e-07
-3.95473e-07
3.17963e-07
-3.5411e-07
3.40051e-07
-3.11402e-07
3.57484e-07
-2.6807e-07
3.69759e-07
-2.22469e-07
3.76331e-07
-1.7761e-07
3.77301e-07
-1.28653e-07
3.77171e-07
-8.91962e-08
3.76654e-07
-4.15855e-08
3.715e-07
1.7374e-08
3.58758e-07
9.47258e-08
3.32922e-07
1.81539e-07
2.94181e-07
2.73022e-07
2.44582e-07
3.57058e-07
1.7907e-07
4.66162e-07
9.6505e-08
5.73172e-07
5.39781e-07
1.5331e-09
2.45565e-07
-6.02054e-08
2.80725e-07
5.27758e-08
-2.35755e-07
1.17542e-07
-4.98617e-07
1.71538e-07
-5.51213e-07
2.13268e-07
-5.43983e-07
2.56753e-07
-5.11726e-07
2.92139e-07
-4.75748e-07
3.2762e-07
-4.32893e-07
3.57974e-07
-3.89038e-07
3.83857e-07
-3.42814e-07
4.05816e-07
-2.9236e-07
4.19093e-07
-2.43178e-07
4.28197e-07
-1.88118e-07
4.25752e-07
-1.33999e-07
4.25033e-07
-8.83969e-08
4.18526e-07
-4.13099e-08
4.14382e-07
2.33498e-08
4.00285e-07
1.04314e-07
3.77963e-07
2.06888e-07
3.36454e-07
3.12445e-07
2.84103e-07
4.12414e-07
2.13946e-07
5.38089e-07
1.31411e-07
6.61204e-07
6.70778e-07
-1.74076e-10
2.38235e-07
-9.05394e-08
3.60329e-07
4.7746e-08
-3.83109e-07
1.28921e-07
-5.78069e-07
1.84013e-07
-6.14009e-07
2.36646e-07
-5.94088e-07
2.79897e-07
-5.61402e-07
3.22882e-07
-5.19076e-07
3.61671e-07
-4.75265e-07
3.96869e-07
-4.27767e-07
4.30217e-07
-3.76307e-07
4.54521e-07
-3.24728e-07
4.78086e-07
-2.66074e-07
4.89051e-07
-2.08173e-07
4.98475e-07
-1.41745e-07
4.90974e-07
-8.98606e-08
4.85305e-07
-3.24046e-08
4.68852e-07
3.21411e-08
4.55046e-07
1.22836e-07
4.24379e-07
2.32009e-07
3.82703e-07
3.59856e-07
3.19884e-07
4.72099e-07
2.43075e-07
6.21556e-07
1.31969e-07
7.68139e-07
8.04457e-07
2.94424e-09
2.26067e-07
-1.11854e-07
4.5587e-07
5.35592e-08
-5.5156e-07
1.37676e-07
-6.68479e-07
2.0302e-07
-6.78679e-07
2.56681e-07
-6.52554e-07
3.06329e-07
-6.11838e-07
3.52299e-07
-5.66872e-07
3.95567e-07
-5.18882e-07
4.37338e-07
-4.67893e-07
4.72234e-07
-4.1554e-07
5.07333e-07
-3.57053e-07
5.33142e-07
-2.97982e-07
5.58785e-07
-2.32035e-07
5.73269e-07
-1.63061e-07
5.78806e-07
-9.33842e-08
5.70853e-07
-3.13076e-08
5.59486e-07
4.61672e-08
5.34239e-07
1.41807e-07
5.03841e-07
2.65683e-07
4.49113e-07
4.08633e-07
3.83186e-07
5.42211e-07
2.86378e-07
7.09611e-07
2.05573e-07
8.5275e-07
1.0107e-06
-2.61458e-08
2.41757e-07
-4.36195e-08
4.51372e-07
8.56274e-08
-6.86139e-07
1.65844e-07
-7.50504e-07
2.29308e-07
-7.47854e-07
2.85647e-07
-7.11785e-07
3.37264e-07
-6.65924e-07
3.86701e-07
-6.16665e-07
4.3446e-07
-5.65522e-07
4.78544e-07
-5.12532e-07
5.21408e-07
-4.55128e-07
5.57675e-07
-3.96721e-07
5.93325e-07
-3.32397e-07
6.23256e-07
-2.64382e-07
6.51063e-07
-1.90679e-07
6.65314e-07
-1.1145e-07
6.69996e-07
-3.64878e-08
6.60769e-07
5.10656e-08
6.42541e-07
1.59215e-07
6.08567e-07
2.94956e-07
5.51993e-07
4.64897e-07
4.49217e-07
6.3775e-07
3.0406e-07
8.57073e-07
7.61738e-08
1.08164e-06
1.08734e-06
-4.95848e-08
2.82522e-07
6.2912e-08
3.25612e-07
9.38451e-08
-7.20666e-07
1.37352e-07
-8.0074e-07
1.81705e-07
-7.95613e-07
2.2346e-07
-7.5872e-07
2.66271e-07
-7.11669e-07
3.10728e-07
-6.62252e-07
3.56668e-07
-6.11444e-07
4.04237e-07
-5.58023e-07
4.50102e-07
-5.0295e-07
4.97658e-07
-4.42729e-07
5.44184e-07
-3.79792e-07
5.91158e-07
-3.12033e-07
6.37892e-07
-2.39202e-07
6.83474e-07
-1.58919e-07
7.20865e-07
-7.66044e-08
7.56542e-07
1.30686e-08
7.96563e-07
1.16269e-07
8.47812e-07
2.41517e-07
9.07236e-07
4.0217e-07
9.45809e-07
5.98941e-07
9.52158e-07
8.50791e-07
8.54754e-07
1.17941e-06
1.68399e-06
2.61459e-07
-4.21424e-08
3.1738e-07
1.30711e-07
1.42273e-07
1.41605e-07
-7.37141e-07
1.75494e-07
-8.37898e-07
2.10226e-07
-8.3816e-07
2.48255e-07
-8.01643e-07
2.89268e-07
-7.5622e-07
3.34102e-07
-7.08529e-07
3.8249e-07
-6.5928e-07
4.32237e-07
-6.08102e-07
4.8435e-07
-5.52909e-07
5.35819e-07
-4.95628e-07
5.88956e-07
-4.33435e-07
6.42769e-07
-3.67121e-07
6.97747e-07
-2.95853e-07
7.55179e-07
-2.18595e-07
8.10765e-07
-1.34414e-07
8.63137e-07
-4.176e-08
9.14596e-07
6.25531e-08
9.75801e-07
1.77858e-07
1.06327e-06
3.13749e-07
1.17204e-06
4.89047e-07
1.30223e-06
7.20439e-07
1.52067e-06
9.65075e-07
1.34133e-06
1.86266e-06
-3.32902e-08
3.45445e-07
1.5636e-07
-5.42221e-08
1.81757e-07
-7.66203e-07
2.06957e-07
-8.7123e-07
2.3729e-07
-8.73107e-07
2.71135e-07
-8.41663e-07
3.10773e-07
-7.99832e-07
3.56147e-07
-7.55381e-07
4.05925e-07
-7.09111e-07
4.59519e-07
-6.59851e-07
5.14023e-07
-6.08254e-07
5.71166e-07
-5.51992e-07
6.29366e-07
-4.92639e-07
6.89794e-07
-4.28907e-07
7.52648e-07
-3.60509e-07
8.18844e-07
-2.86783e-07
8.89009e-07
-2.06811e-07
9.62523e-07
-1.17481e-07
1.03839e-06
-1.5534e-08
1.11621e-06
9.85064e-08
1.20896e-06
2.18913e-07
1.34266e-06
3.54929e-07
1.53202e-06
5.33069e-07
1.80222e-06
6.92885e-07
8.63566e-07
2.28116e-06
-3.44555e-08
3.6947e-07
1.80955e-07
-2.75871e-07
2.09163e-07
-8.00464e-07
2.3173e-07
-8.9788e-07
2.57027e-07
-9.07117e-07
2.89724e-07
-8.80245e-07
3.29359e-07
-8.43353e-07
3.75695e-07
-8.03231e-07
4.27766e-07
-7.60474e-07
4.83308e-07
-7.14953e-07
5.42399e-07
-6.6529e-07
6.02698e-07
-6.12937e-07
6.65709e-07
-5.56336e-07
7.31465e-07
-4.95962e-07
8.0066e-07
-4.31391e-07
8.74021e-07
-3.62061e-07
9.52476e-07
-2.87268e-07
1.03871e-06
-2.05795e-07
1.13615e-06
-1.14953e-07
1.24436e-06
-1.18306e-08
1.36026e-06
1.02182e-07
1.4985e-06
2.15698e-07
1.68983e-06
3.39685e-07
1.93943e-06
4.4531e-07
5.06096e-07
2.29495e-06
1.97853e-08
3.44308e-07
2.02599e-07
-4.6373e-07
2.22805e-07
-8.25116e-07
2.42263e-07
-9.26174e-07
2.6973e-07
-9.39858e-07
3.03005e-07
-9.20189e-07
3.44107e-07
-8.88456e-07
3.92392e-07
-8.52907e-07
4.46525e-07
-8.14207e-07
5.05506e-07
-7.71803e-07
5.66855e-07
-7.2635e-07
6.31355e-07
-6.76698e-07
6.98287e-07
-6.23946e-07
7.68692e-07
-5.67604e-07
8.43244e-07
-5.07546e-07
9.22897e-07
-4.43505e-07
1.00874e-06
-3.74992e-07
1.10245e-06
-3.01431e-07
1.20768e-06
-2.22207e-07
1.33043e-06
-1.36061e-07
1.4721e-06
-4.16336e-08
1.63185e-06
5.46766e-08
1.82212e-06
1.49934e-07
2.0397e-06
2.24391e-07
2.61591e-07
2.28396e-06
1.57708e-07
1.75057e-07
2.06599e-07
-5.18766e-07
2.16279e-07
-8.41523e-07
2.43283e-07
-9.57436e-07
2.7361e-07
-9.79842e-07
3.11073e-07
-9.63397e-07
3.54889e-07
-9.36308e-07
4.05776e-07
-9.04953e-07
4.62722e-07
-8.70084e-07
5.23811e-07
-8.31693e-07
5.8872e-07
-7.89194e-07
6.55906e-07
-7.43728e-07
7.26307e-07
-6.94842e-07
8.00455e-07
-6.42881e-07
8.79244e-07
-5.87855e-07
9.6365e-07
-5.29638e-07
1.05493e-06
-4.68075e-07
1.1547e-06
-4.0303e-07
1.26515e-06
-3.34397e-07
1.38965e-06
-2.62604e-07
1.53508e-06
-1.88221e-07
1.70216e-06
-1.14071e-07
1.89234e-06
-4.32584e-08
2.10376e-06
1.33207e-08
4.34199e-08
2.31924e-06
1.96878e-07
-2.51571e-08
1.70394e-07
-4.97358e-07
1.98823e-07
-8.74371e-07
2.34633e-07
-1.00322e-06
2.73979e-07
-1.02446e-06
3.15158e-07
-1.01157e-06
3.62488e-07
-9.87708e-07
4.1634e-07
-9.59867e-07
4.75694e-07
-9.28619e-07
5.39765e-07
-8.93392e-07
6.06716e-07
-8.54953e-07
6.76738e-07
-8.13044e-07
7.49871e-07
-7.68328e-07
8.26976e-07
-7.21025e-07
9.08904e-07
-6.71234e-07
9.96668e-07
-6.19072e-07
1.09145e-06
-5.64615e-07
1.19467e-06
-5.08004e-07
1.30804e-06
-4.49596e-07
1.43391e-06
-3.89936e-07
1.57409e-06
-3.30672e-07
1.73145e-06
-2.73186e-07
1.90908e-06
-2.21613e-07
2.10169e-06
-1.82925e-07
-1.59647e-07
2.30356e-06
1.06504e-07
-1.39353e-07
1.23711e-07
-5.20274e-07
1.79514e-07
-9.37253e-07
2.28301e-07
-1.05666e-06
2.71424e-07
-1.07747e-06
3.17236e-07
-1.06376e-06
3.6797e-07
-1.04215e-06
4.24438e-07
-1.01736e-06
4.86429e-07
-9.89159e-07
5.52365e-07
-9.57548e-07
6.21711e-07
-9.22353e-07
6.93784e-07
-8.84297e-07
7.68995e-07
-8.43881e-07
8.48232e-07
-8.01249e-07
9.32361e-07
-7.56765e-07
1.02228e-06
-7.10629e-07
1.11903e-06
-6.63094e-07
1.22376e-06
-6.14503e-07
1.33785e-06
-5.65334e-07
1.46246e-06
-5.16525e-07
1.59937e-06
-4.68896e-07
1.74922e-06
-4.25087e-07
1.91199e-06
-3.87317e-07
2.08695e-06
-3.58777e-07
-3.44218e-07
2.26874e-06
4.41942e-08
-1.84723e-07
1.01799e-07
-5.82195e-07
1.7043e-07
-1.01065e-06
2.21916e-07
-1.11809e-06
2.704e-07
-1.13154e-06
3.18721e-07
-1.11907e-06
3.7196e-07
-1.09923e-06
4.30768e-07
-1.07705e-06
4.94599e-07
-1.05175e-06
5.62572e-07
-1.02304e-06
6.33528e-07
-9.91337e-07
7.07056e-07
-9.57233e-07
7.83875e-07
-9.20795e-07
8.64576e-07
-8.82836e-07
9.50013e-07
-8.43546e-07
1.04105e-06
-8.03262e-07
1.13856e-06
-7.6232e-07
1.24347e-06
-7.21136e-07
1.35665e-06
-6.80333e-07
1.47922e-06
-6.40565e-07
1.61137e-06
-6.03337e-07
1.75399e-06
-5.69511e-07
1.90684e-06
-5.41742e-07
2.0675e-06
-5.22563e-07
-5.13208e-07
2.23454e-06
1.69111e-08
-2.08669e-07
9.64678e-08
-6.67368e-07
1.65158e-07
-1.08635e-06
2.20782e-07
-1.17785e-06
2.68829e-07
-1.19016e-06
3.19994e-07
-1.1759e-06
3.74934e-07
-1.15807e-06
4.35506e-07
-1.13817e-06
5.00956e-07
-1.11555e-06
5.70178e-07
-1.08993e-06
6.42195e-07
-1.0616e-06
7.17107e-07
-1.03074e-06
7.94739e-07
-9.98656e-07
8.76221e-07
-9.65191e-07
9.62284e-07
-9.3092e-07
1.05363e-06
-8.96188e-07
1.15101e-06
-8.61388e-07
1.25511e-06
-8.26991e-07
1.36667e-06
-7.93534e-07
1.48601e-06
-7.61898e-07
1.61388e-06
-7.32669e-07
1.74975e-06
-7.07696e-07
1.89334e-06
-6.8785e-07
2.0438e-06
-6.75031e-07
-6.70858e-07
2.19887e-06
8.72198e-09
-2.18182e-07
9.70434e-08
-7.59803e-07
1.65127e-07
-1.15843e-06
2.17937e-07
-1.24139e-06
2.69511e-07
-1.24674e-06
3.20772e-07
-1.23433e-06
3.77092e-07
-1.21819e-06
4.38846e-07
-1.20048e-06
5.05256e-07
-1.18044e-06
5.754e-07
-1.15749e-06
6.48538e-07
-1.13205e-06
7.23601e-07
-1.10535e-06
8.01889e-07
-1.0768e-06
8.83661e-07
-1.0477e-06
9.69706e-07
-1.01821e-06
1.06071e-06
-9.88722e-07
1.15727e-06
-9.59631e-07
1.25996e-06
-9.31379e-07
1.36917e-06
-9.0456e-07
1.48541e-06
-8.79694e-07
1.60834e-06
-8.57897e-07
1.73835e-06
-8.39528e-07
1.87451e-06
-8.26434e-07
2.01613e-06
-8.19097e-07
-8.1908e-07
2.1617e-06
1.22026e-08
-2.37346e-07
9.99658e-08
-8.51896e-07
1.63974e-07
-1.22934e-06
2.19359e-07
-1.30107e-06
2.68714e-07
-1.30641e-06
3.21224e-07
-1.2932e-06
3.78474e-07
-1.27874e-06
4.40796e-07
-1.26334e-06
5.07984e-07
-1.24559e-06
5.78727e-07
-1.22543e-06
6.51665e-07
-1.20344e-06
7.2757e-07
-1.17926e-06
8.05631e-07
-1.15496e-06
8.87168e-07
-1.12998e-06
9.72753e-07
-1.105e-06
1.06292e-06
-1.08039e-06
1.15819e-06
-1.05654e-06
1.25897e-06
-1.0339e-06
1.36566e-06
-1.0129e-06
1.47823e-06
-9.94263e-07
1.59703e-06
-9.78301e-07
1.72124e-06
-9.66328e-07
1.85115e-06
-9.583e-07
1.98517e-06
-9.56253e-07
-9.59514e-07
2.12335e-06
2.05996e-08
-2.56868e-07
1.03558e-07
-9.37962e-07
1.66294e-07
-1.29644e-06
2.17969e-07
-1.36301e-06
2.69211e-07
-1.36298e-06
3.21447e-07
-1.35229e-06
3.78873e-07
-1.33965e-06
4.41628e-07
-1.32647e-06
5.08995e-07
-1.31104e-06
5.79647e-07
-1.29345e-06
6.5335e-07
-1.27372e-06
7.28286e-07
-1.25386e-06
8.06286e-07
-1.23255e-06
8.87263e-07
-1.21152e-06
9.71941e-07
-1.1908e-06
1.06087e-06
-1.17076e-06
1.15446e-06
-1.15177e-06
1.25308e-06
-1.13419e-06
1.35688e-06
-1.11853e-06
1.46616e-06
-1.10513e-06
1.58037e-06
-1.09485e-06
1.69998e-06
-1.08766e-06
1.82356e-06
-1.08518e-06
1.95211e-06
-1.08638e-06
-1.09398e-06
2.08324e-06
2.78865e-08
-2.9104e-07
1.07172e-07
-1.02166e-06
1.66435e-07
-1.36252e-06
2.19743e-07
-1.41994e-06
2.67978e-07
-1.42208e-06
3.21159e-07
-1.41072e-06
3.78399e-07
-1.40045e-06
4.41267e-07
-1.38924e-06
5.08532e-07
-1.37611e-06
5.79364e-07
-1.36092e-06
6.51772e-07
-1.34478e-06
7.27185e-07
-1.3267e-06
8.04161e-07
-1.30948e-06
8.84183e-07
-1.29213e-06
9.67684e-07
-1.27538e-06
1.05508e-06
-1.25957e-06
1.14674e-06
-1.24501e-06
1.24292e-06
-1.23209e-06
1.3439e-06
-1.22114e-06
1.44947e-06
-1.21273e-06
1.55993e-06
-1.20701e-06
1.67434e-06
-1.20491e-06
1.79375e-06
-1.20587e-06
1.9156e-06
-1.21248e-06
-1.22221e-06
2.04199e-06
3.58294e-08
-3.25846e-07
1.10715e-07
-1.09975e-06
1.69211e-07
-1.42454e-06
2.17658e-07
-1.47944e-06
2.68335e-07
-1.47721e-06
3.19935e-07
-1.46926e-06
3.7716e-07
-1.46098e-06
4.39734e-07
-1.45178e-06
5.06684e-07
-1.44088e-06
5.76621e-07
-1.42812e-06
6.49597e-07
-1.41365e-06
7.23132e-07
-1.40002e-06
7.99543e-07
-1.38524e-06
8.78417e-07
-1.3714e-06
9.60426e-07
-1.35839e-06
1.04603e-06
-1.34653e-06
1.13554e-06
-1.33609e-06
1.2292e-06
-1.32739e-06
1.32708e-06
-1.32084e-06
1.42937e-06
-1.31668e-06
1.53559e-06
-1.31552e-06
1.64628e-06
-1.31723e-06
1.75965e-06
-1.32334e-06
1.87819e-06
-1.33169e-06
-1.34641e-06
1.99845e-06
4.16087e-08
-3.73258e-07
1.14041e-07
-1.17558e-06
1.68603e-07
-1.48583e-06
2.19062e-07
-1.53369e-06
2.66281e-07
-1.53472e-06
3.18113e-07
-1.52711e-06
3.75135e-07
-1.52068e-06
4.37058e-07
-1.51367e-06
5.03524e-07
-1.50472e-06
5.73311e-07
-1.49414e-06
6.44105e-07
-1.48332e-06
7.17922e-07
-1.47075e-06
7.92716e-07
-1.45988e-06
8.70136e-07
-1.44928e-06
9.50499e-07
-1.43973e-06
1.03414e-06
-1.43149e-06
1.12135e-06
-1.42482e-06
1.2123e-06
-1.42004e-06
1.30722e-06
-1.41739e-06
1.40591e-06
-1.41736e-06
1.50859e-06
-1.41999e-06
1.61434e-06
-1.42604e-06
1.72493e-06
-1.43449e-06
1.83675e-06
-1.4488e-06
-1.46473e-06
1.95371e-06
4.80569e-08
-4.18769e-07
1.16479e-07
-1.24633e-06
1.70151e-07
-1.54348e-06
2.16416e-07
-1.59026e-06
2.65147e-07
-1.58828e-06
3.1592e-07
-1.58429e-06
3.72129e-07
-1.57981e-06
4.33534e-07
-1.57484e-06
4.99253e-07
-1.56787e-06
5.67494e-07
-1.55965e-06
6.38814e-07
-1.54991e-06
7.10022e-07
-1.54188e-06
7.83918e-07
-1.53291e-06
8.59783e-07
-1.52539e-06
9.3827e-07
-1.5191e-06
1.01978e-06
-1.51426e-06
1.10454e-06
-1.5111e-06
1.19278e-06
-1.50987e-06
1.2845e-06
-1.51093e-06
1.37992e-06
-1.51443e-06
1.47853e-06
-1.52091e-06
1.58117e-06
-1.53009e-06
1.68543e-06
-1.54367e-06
1.79538e-06
-1.55839e-06
-1.58004e-06
1.90623e-06
5.1383e-08
-4.7496e-07
1.17681e-07
-1.31624e-06
1.68349e-07
-1.60073e-06
2.16636e-07
-1.64156e-06
2.61856e-07
-1.64433e-06
3.13088e-07
-1.64012e-06
3.68341e-07
-1.63809e-06
4.29086e-07
-1.63482e-06
4.93745e-07
-1.62984e-06
5.61742e-07
-1.62341e-06
6.30137e-07
-1.6174e-06
7.01559e-07
-1.60975e-06
7.73397e-07
-1.60449e-06
8.4747e-07
-1.59981e-06
9.23998e-07
-1.5965e-06
1.00326e-06
-1.59476e-06
1.08551e-06
-1.59481e-06
1.17086e-06
-1.59689e-06
1.25956e-06
-1.60122e-06
1.35137e-06
-1.60824e-06
1.4466e-06
-1.61794e-06
1.54421e-06
-1.63093e-06
1.64673e-06
-1.64592e-06
1.74935e-06
-1.66725e-06
-1.68918e-06
1.85769e-06
5.47136e-08
-5.27517e-07
1.18152e-07
-1.38223e-06
1.68883e-07
-1.65451e-06
2.1233e-07
-1.69615e-06
2.60175e-07
-1.69594e-06
3.09244e-07
-1.6957e-06
3.63964e-07
-1.6955e-06
4.23719e-07
-1.69392e-06
4.87462e-07
-1.69081e-06
5.53418e-07
-1.68655e-06
6.22392e-07
-1.68107e-06
6.9062e-07
-1.67804e-06
7.61352e-07
-1.67416e-06
8.33597e-07
-1.67216e-06
9.07992e-07
-1.67167e-06
9.84896e-07
-1.67284e-06
1.06451e-06
-1.67586e-06
1.14703e-06
-1.68095e-06
1.23244e-06
-1.68843e-06
1.32096e-06
-1.69843e-06
1.4122e-06
-1.71135e-06
1.50704e-06
-1.72699e-06
1.60267e-06
-1.74711e-06
1.70441e-06
-1.76763e-06
-1.79583e-06
1.80619e-06
5.59348e-08
-5.8794e-07
1.182e-07
-1.4473e-06
1.6559e-07
-1.70848e-06
2.11754e-07
-1.7456e-06
2.55872e-07
-1.75015e-06
3.04902e-07
-1.75025e-06
3.58977e-07
-1.75154e-06
4.17513e-07
-1.75182e-06
4.80121e-07
-1.75026e-06
5.45722e-07
-1.74756e-06
6.11179e-07
-1.74582e-06
6.79652e-07
-1.74248e-06
7.48009e-07
-1.74214e-06
8.1823e-07
-1.74258e-06
8.90461e-07
-1.74464e-06
9.64938e-07
-1.74845e-06
1.04189e-06
-1.75419e-06
1.12141e-06
-1.76208e-06
1.20372e-06
-1.77231e-06
1.28868e-06
-1.78528e-06
1.37648e-06
-1.80099e-06
1.46613e-06
-1.81998e-06
1.56073e-06
-1.84065e-06
1.65433e-06
-1.8683e-06
-1.89574e-06
1.75402e-06
5.78197e-08
-6.42647e-07
1.17334e-07
-1.5087e-06
1.64754e-07
-1.75959e-06
2.06959e-07
-1.79808e-06
2.52687e-07
-1.80018e-06
3.00392e-07
-1.8038e-06
3.5321e-07
-1.80663e-06
4.10807e-07
-1.80854e-06
4.72254e-07
-1.80851e-06
5.3541e-07
-1.80788e-06
6.01585e-07
-1.80609e-06
6.66394e-07
-1.80742e-06
7.33527e-07
-1.80796e-06
8.0174e-07
-1.81072e-06
8.71669e-07
-1.81519e-06
9.43644e-07
-1.82147e-06
1.01784e-06
-1.82973e-06
1.09443e-06
-1.84014e-06
1.17342e-06
-1.85303e-06
1.255e-06
-1.8685e-06
1.33881e-06
-1.88694e-06
1.42596e-06
-1.90802e-06
1.51296e-06
-1.93385e-06
1.60645e-06
-1.95936e-06
-1.99344e-06
1.69897e-06
5.7426e-08
-7.03875e-07
1.15824e-07
-1.57032e-06
1.60828e-07
-1.81107e-06
2.05524e-07
-1.84526e-06
2.47471e-07
-1.85276e-06
2.95437e-07
-1.85565e-06
3.46931e-07
-1.86052e-06
4.0352e-07
-1.86363e-06
4.6341e-07
-1.86517e-06
5.26296e-07
-1.86569e-06
5.88445e-07
-1.86768e-06
6.53584e-07
-1.86805e-06
7.18106e-07
-1.87195e-06
7.84145e-07
-1.87679e-06
8.51779e-07
-1.88341e-06
9.21212e-07
-1.89191e-06
9.92652e-07
-1.90244e-06
1.06618e-06
-1.9152e-06
1.14202e-06
-1.93036e-06
1.21999e-06
-1.94833e-06
1.3004e-06
-1.96909e-06
1.38206e-06
-1.99309e-06
1.46868e-06
-2.01856e-06
1.55316e-06
-2.05156e-06
-2.08377e-06
1.64388e-06
5.78703e-08
-7.59307e-07
1.14213e-07
-1.62893e-06
1.59877e-07
-1.85945e-06
1.99595e-07
-1.89612e-06
2.44234e-07
-1.90049e-06
2.89661e-07
-1.90701e-06
3.40388e-07
-1.91319e-06
3.95648e-07
-1.91752e-06
4.5438e-07
-1.92048e-06
5.14508e-07
-1.92285e-06
5.77539e-07
-1.92426e-06
6.38631e-07
-1.92935e-06
7.01872e-07
-1.93366e-06
7.65791e-07
-1.94045e-06
8.3102e-07
-1.94911e-06
8.97867e-07
-1.95968e-06
9.66483e-07
-1.97229e-06
1.03703e-06
-1.98713e-06
1.1095e-06
-2.00449e-06
1.18408e-06
-2.0245e-06
1.2605e-06
-2.04744e-06
1.33983e-06
-2.07307e-06
1.41824e-06
-2.10354e-06
1.50323e-06
-2.1332e-06
-2.17213e-06
1.58622e-06
5.67906e-08
-8.19769e-07
1.12727e-07
-1.68732e-06
1.55275e-07
-1.90843e-06
1.97904e-07
-1.94153e-06
2.38454e-07
-1.95073e-06
2.83651e-07
-1.95709e-06
3.33516e-07
-1.9642e-06
3.87283e-07
-1.96997e-06
4.44551e-07
-1.97401e-06
5.04388e-07
-1.97729e-06
5.62989e-07
-1.98246e-06
6.24543e-07
-1.98598e-06
6.85004e-07
-1.99346e-06
7.46657e-07
-2.00199e-06
8.09519e-07
-2.01241e-06
8.73768e-07
-2.0248e-06
9.39587e-07
-2.03927e-06
1.00705e-06
-2.05602e-06
1.07634e-06
-2.07521e-06
1.14738e-06
-2.09724e-06
1.22032e-06
-2.12209e-06
1.29402e-06
-2.15015e-06
1.37252e-06
-2.1794e-06
1.44781e-06
-2.21672e-06
-2.25263e-06
1.52927e-06
5.70453e-08
-8.73559e-07
1.10742e-07
-1.74259e-06
1.53502e-07
-1.95458e-06
1.91957e-07
-1.99005e-06
2.34031e-07
-1.99648e-06
2.77739e-07
-2.00592e-06
3.26115e-07
-2.01407e-06
3.78767e-07
-2.02102e-06
4.34712e-07
-2.02614e-06
4.91537e-07
-2.03117e-06
5.51232e-07
-2.03522e-06
6.08428e-07
-2.04346e-06
6.676e-07
-2.0509e-06
7.27073e-07
-2.06104e-06
7.87481e-07
-2.07315e-06
8.4911e-07
-2.08722e-06
9.12089e-07
-2.10337e-06
9.76568e-07
-2.12177e-06
1.04252e-06
-2.14274e-06
1.11014e-06
-2.16636e-06
1.17911e-06
-2.19292e-06
1.25071e-06
-2.22204e-06
1.32047e-06
-2.25614e-06
1.39689e-06
-2.28885e-06
-2.33142e-06
1.47021e-06
5.54065e-08
-9.31978e-07
1.08176e-07
-1.79822e-06
1.48568e-07
-2.00121e-06
1.89624e-07
-2.03299e-06
2.27681e-07
-2.04477e-06
2.71568e-07
-2.05286e-06
3.18462e-07
-2.06262e-06
3.69969e-07
-2.07029e-06
4.2411e-07
-2.07653e-06
4.80817e-07
-2.08209e-06
5.35731e-07
-2.08989e-06
5.93543e-07
-2.09598e-06
6.49823e-07
-2.10642e-06
7.06989e-07
-2.11796e-06
7.65006e-07
-2.13147e-06
8.24027e-07
-2.14699e-06
8.84218e-07
-2.1646e-06
9.45624e-07
-2.18451e-06
1.00845e-06
-2.20688e-06
1.07253e-06
-2.23208e-06
1.13814e-06
-2.26007e-06
1.20392e-06
-2.29116e-06
1.27436e-06
-2.32319e-06
1.34053e-06
-2.36357e-06
-2.40204e-06
1.41266e-06
5.42879e-08
-9.83644e-07
1.05354e-07
-1.85125e-06
1.46797e-07
-2.04497e-06
1.8271e-07
-2.07985e-06
2.23563e-07
-2.08793e-06
2.64737e-07
-2.09926e-06
3.10808e-07
-2.10982e-06
3.60857e-07
-2.11825e-06
4.13782e-07
-2.12548e-06
4.67289e-07
-2.13252e-06
5.23506e-07
-2.13874e-06
5.76723e-07
-2.14956e-06
6.31747e-07
-2.15953e-06
6.86722e-07
-2.17236e-06
7.42283e-07
-2.18721e-06
7.98699e-07
-2.20405e-06
8.56074e-07
-2.22297e-06
9.1455e-07
-2.24414e-06
9.74071e-07
-2.26787e-06
1.03481e-06
-2.29423e-06
1.09655e-06
-2.3234e-06
1.16044e-06
-2.35508e-06
1.22183e-06
-2.39165e-06
1.28968e-06
-2.4264e-06
-2.4713e-06
1.35349e-06
5.19893e-08
-1.03864e-06
1.02853e-07
-1.90425e-06
1.41407e-07
-2.08974e-06
1.8039e-07
-2.12106e-06
2.16978e-07
-2.13369e-06
2.57889e-07
-2.14431e-06
3.0305e-07
-2.15526e-06
3.51509e-07
-2.1647e-06
4.0284e-07
-2.17252e-06
4.56256e-07
-2.17988e-06
5.07439e-07
-2.18978e-06
5.61454e-07
-2.19791e-06
6.13528e-07
-2.21068e-06
6.66202e-07
-2.22461e-06
7.19393e-07
-2.24054e-06
7.73234e-07
-2.25848e-06
8.27873e-07
-2.2785e-06
8.8334e-07
-2.30081e-06
9.39803e-07
-2.32554e-06
9.97178e-07
-2.35304e-06
1.05558e-06
-2.38326e-06
1.11371e-06
-2.41643e-06
1.17621e-06