/*--------------------------------*- C++ -*----------------------------------*\
  =========                 |
  \\      /  F ield         | OpenFOAM: The Open Source CFD Toolbox
   \\    /   O peration     | Website:  https://openfoam.org
    \\  /    A nd           | Version:  13
     \\/     M anipulation  |
\*---------------------------------------------------------------------------*/
FoamFile
{
    format      ascii;
    class       surfaceScalarField;
    location    "1";
    object      phi;
}
// * * * * * * * * * * * * * * * * * * * * * * * * * * * * * * * * * * * * * //

dimensions      [0 3 -1 0 0 0 0];

internalField   nonuniform List<scalar> 
12590
(
-2.60449e-09
2.60449e-09
-6.63527e-09
4.03077e-09
-1.00414e-08
3.40615e-09
-1.27037e-08
2.66223e-09
-1.49205e-08
2.21684e-09
-1.68391e-08
1.91863e-09
-1.8521e-08
1.68189e-09
-1.99747e-08
1.45365e-09
-2.11797e-08
1.20502e-09
-2.20989e-08
9.19184e-10
-2.26952e-08
5.96315e-10
-2.29372e-08
2.42007e-10
-2.27957e-08
-1.41518e-10
-2.22496e-08
-5.46044e-10
-2.12985e-08
-9.5117e-10
-1.997e-08
-1.32842e-09
-1.83177e-08
-1.65228e-09
-1.64085e-08
-1.90924e-09
-1.43146e-08
-2.09391e-09
-1.21029e-08
-2.21171e-09
-9.81412e-09
-2.28877e-09
-7.40201e-09
-2.41211e-09
-4.94433e-09
-2.45768e-09
-2.24129e-09
-2.70305e-09
-2.24129e-09
-1.37634e-09
3.98084e-09
-3.57712e-09
6.23155e-09
-5.27682e-09
5.10585e-09
-6.35716e-09
3.74258e-09
-7.00492e-09
2.86459e-09
-7.31976e-09
2.23347e-09
-7.35263e-09
1.71476e-09
-7.11898e-09
1.22e-09
-6.62051e-09
7.06553e-10
-5.846e-09
1.44673e-10
-4.78462e-09
-4.65057e-10
-3.4329e-09
-1.10971e-09
-1.81019e-09
-1.76423e-09
3.3605e-11
-2.38984e-09
2.01497e-09
-2.93254e-09
4.01982e-09
-3.33328e-09
5.91971e-09
-3.55217e-09
7.57966e-09
-3.56918e-09
8.85454e-09
-3.36879e-09
9.58501e-09
-2.94218e-09
9.59642e-09
-2.30018e-09
8.70788e-09
-1.52356e-09
6.65312e-09
-4.02924e-10
3.17871e-09
7.71361e-10
9.37427e-10
-2.5972e-10
4.24055e-09
-6.47211e-10
6.61904e-09
-7.73769e-10
5.23241e-09
-6.11092e-10
3.5799e-09
-1.98847e-10
2.45235e-09
4.36405e-10
1.59821e-09
1.2759e-09
8.75269e-10
2.30284e-09
1.93053e-10
3.50135e-09
-4.9196e-10
4.84597e-09
-1.19994e-09
6.29721e-09
-1.9163e-09
7.80365e-09
-2.61616e-09
9.29473e-09
-3.2553e-09
1.06912e-08
-3.78633e-09
1.19162e-08
-4.15753e-09
1.29038e-08
-4.32083e-09
1.35917e-08
-4.24009e-09
1.39086e-08
-3.88609e-09
1.37657e-08
-3.22589e-09
1.30628e-08
-2.23933e-09
1.16877e-08
-9.25012e-10
9.51514e-09
6.48965e-10
6.49277e-09
2.61945e-09
2.72242e-09
4.54171e-09
3.65985e-09
3.98409e-10
3.84215e-09
1.13042e-09
5.88704e-09
1.94253e-09
4.42029e-09
2.79768e-09
2.72475e-09
3.74039e-09
1.50963e-09
4.78701e-09
5.51603e-10
5.93054e-09
-2.68262e-10
7.15115e-09
-1.02756e-09
8.41589e-09
-1.7567e-09
9.6789e-09
-2.46295e-09
1.08886e-08
-3.12595e-09
1.19875e-08
-3.7151e-09
1.29222e-08
-4.19001e-09
1.36436e-08
-4.50775e-09
1.41121e-08
-4.62603e-09
1.4298e-08
-4.50676e-09
1.41774e-08
-4.11943e-09
1.3726e-08
-3.43471e-09
1.29021e-08
-2.40199e-09
1.16933e-08
-1.03054e-09
1.00609e-08
7.07427e-10
7.94337e-09
2.76647e-09
5.35686e-09
5.20597e-09
2.29055e-09
7.60802e-09
5.9504e-09
7.1077e-10
3.13138e-09
1.97777e-09
4.62003e-09
3.19908e-09
3.19899e-09
4.30648e-09
1.61735e-09
5.38663e-09
4.29481e-10
6.46618e-09
-5.27946e-10
7.55079e-09
-1.35288e-09
8.61717e-09
-2.09393e-09
9.63101e-09
-2.77054e-09
1.05477e-08
-3.37967e-09
1.13237e-08
-3.90194e-09
1.19171e-08
-4.30853e-09
1.22936e-08
-4.56645e-09
1.24305e-08
-4.64471e-09
1.23219e-08
-4.51736e-09
1.19718e-08
-4.15667e-09
1.13936e-08
-3.54128e-09
1.06086e-08
-2.64971e-09
9.63965e-09
-1.433e-09
8.53508e-09
7.40358e-11
7.28184e-09
1.96067e-09
5.81384e-09
4.23447e-09
4.08264e-09
6.93716e-09
1.89605e-09
9.79461e-09
7.84645e-09
7.92221e-10
2.33915e-09
2.19639e-09
3.21586e-09
3.48961e-09
1.90577e-09
4.59585e-09
5.11116e-10
5.59535e-09
-5.70017e-10
6.52402e-09
-1.45662e-09
7.38303e-09
-2.21188e-09
8.15409e-09
-2.865e-09
8.80945e-09
-3.4259e-09
9.3164e-09
-3.88662e-09
9.64293e-09
-4.22847e-09
9.76334e-09
-4.42893e-09
9.66441e-09
-4.46753e-09
9.34775e-09
-4.32804e-09
8.83243e-09
-4.00204e-09
8.15928e-09
-3.48353e-09
7.38158e-09
-2.76358e-09
6.5556e-09
-1.82372e-09
5.75296e-09
-6.30365e-10
5.01379e-09
8.13204e-10
4.32805e-09
2.64641e-09
3.58909e-09
4.97342e-09
2.71168e-09
7.81458e-09
1.40613e-09
1.11001e-08
9.25258e-09
7.4216e-10
1.59699e-09
2.05171e-09
1.90631e-09
3.22776e-09
7.29727e-10
4.1885e-09
-4.49625e-10
5.00224e-09
-1.38376e-09
5.69687e-09
-2.15126e-09
6.27379e-09
-2.7888e-09
6.72259e-09
-3.3138e-09
7.02356e-09
-3.72687e-09
7.15407e-09
-4.01713e-09
7.0956e-09
-4.17e-09
6.83956e-09
-4.17289e-09
6.38871e-09
-4.01668e-09
5.76663e-09
-3.70596e-09
5.0218e-09
-3.25722e-09
4.21921e-09
-2.68093e-09
3.43536e-09
-1.97973e-09
2.74878e-09
-1.13715e-09
2.23104e-09
-1.12623e-10
1.90038e-09
1.14386e-09
1.73431e-09
2.81247e-09
1.61084e-09
5.09689e-09
1.43765e-09
7.98778e-09
9.01678e-10
1.16361e-08
1.01543e-08
6.26345e-10
9.70649e-10
1.7256e-09
8.07049e-10
2.68842e-09
-2.33093e-10
3.4383e-09
-1.1995e-09
4.0255e-09
-1.97096e-09
4.46932e-09
-2.59508e-09
4.77428e-09
-3.09376e-09
4.93327e-09
-3.47279e-09
4.93358e-09
-3.72717e-09
4.76295e-09
-3.8465e-09
4.41414e-09
-3.82118e-09
3.88935e-09
-3.6481e-09
3.21064e-09
-3.33797e-09
2.42155e-09
-2.91686e-09
1.58866e-09
-2.42433e-09
7.93522e-10
-1.88579e-09
1.23535e-10
-1.30974e-09
-3.42241e-10
-6.7137e-10
-5.59047e-10
1.04184e-10
-5.26162e-10
1.11098e-09
-2.92474e-10
2.57879e-09
3.89214e-11
4.7655e-09
3.72588e-10
7.65411e-09
4.39381e-10
1.15693e-08
1.05936e-08
4.85073e-10
4.85576e-10
1.33042e-09
-3.82948e-11
2.04754e-09
-9.50217e-10
2.57281e-09
-1.72477e-09
2.93749e-09
-2.33564e-09
3.1559e-09
-2.81349e-09
3.23078e-09
-3.16865e-09
3.15797e-09
-3.39999e-09
2.9319e-09
-3.50109e-09
2.54817e-09
-3.46278e-09
2.01258e-09
-3.28559e-09
1.34962e-09
-2.98514e-09
6.01568e-10
-2.58992e-09
-1.72241e-10
-2.14305e-09
-9.04224e-10
-1.69235e-09
-1.52945e-09
-1.26057e-09
-1.99097e-09
-8.48222e-10
-2.24287e-09
-4.19466e-10
-2.26353e-09
1.24846e-10
-2.05674e-09
9.04178e-10
-1.65003e-09
2.17208e-09
-1.09674e-09
4.21221e-09
-4.66561e-10
7.02393e-09
3.5163e-11
1.10676e-08
1.06288e-08
3.42119e-10
1.43457e-10
9.34074e-10
-6.3025e-10
1.41485e-09
-1.43099e-09
1.73347e-09
-2.04339e-09
1.90692e-09
-2.50909e-09
1.94312e-09
-2.84968e-09
1.84434e-09
-3.06987e-09
1.61025e-09
-3.1659e-09
1.24266e-09
-3.1335e-09
7.54741e-10
-2.97486e-09
1.70139e-10
-2.70099e-09
-4.78699e-10
-2.3363e-09
-1.15098e-09
-1.91764e-09
-1.80499e-09
-1.48904e-09
-2.39806e-09
-1.09928e-09
-2.89092e-09
-7.67701e-10
-3.24073e-09
-4.98409e-10
-3.40694e-09
-2.53259e-10
-3.35855e-09
7.64597e-11
-3.09515e-09
6.4077e-10
-2.62076e-09
1.69769e-09
-1.96463e-09
3.55608e-09
-1.16181e-09
6.22111e-09
-3.37789e-10
1.02436e-08
1.0291e-08
2.11158e-10
-6.77019e-11
5.76825e-10
-9.95917e-10
8.52991e-10
-1.70716e-09
1.00041e-09
-2.19081e-09
1.02433e-09
-2.533e-09
9.28005e-10
-2.75336e-09
7.14695e-10
-2.85656e-09
3.91355e-10
-2.84256e-09
-3.00602e-11
-2.71208e-09
-5.32386e-10
-2.47254e-09
-1.09251e-09
-2.14087e-09
-1.68293e-09
-1.74588e-09
-2.27491e-09
-1.32566e-09
-2.8375e-09
-9.26457e-10
-3.33749e-09
-5.99283e-10
-3.74263e-09
-3.6256e-10
-4.01823e-09
-2.22816e-10
-4.13434e-09
-1.3715e-10
-4.06001e-09
2.13044e-12
-3.79529e-09
3.76056e-10
-3.3246e-09
1.22699e-09
-2.64812e-09
2.87961e-09
-1.75357e-09
5.32656e-09
-6.80461e-10
9.17048e-09
9.61055e-09
1.00195e-10
-1.67898e-10
2.79223e-10
-1.17494e-09
3.9215e-10
-1.82009e-09
4.08194e-10
-2.20686e-09
3.24379e-10
-2.44919e-09
1.42066e-10
-2.57105e-09
-1.33839e-10
-2.58065e-09
-4.9514e-10
-2.48126e-09
-9.28651e-10
-2.27857e-09
-1.4171e-09
-1.98409e-09
-1.93944e-09
-1.61853e-09
-2.4716e-09
-1.21372e-09
-2.98727e-09
-8.09989e-10
-3.46175e-09
-4.51976e-10
-3.87091e-09
-1.90121e-10
-4.19052e-09
-4.29516e-11
-4.39938e-09
-1.39539e-11
-4.47867e-09
-5.78636e-11
-4.40938e-09
-6.71582e-11
-4.1808e-09
1.47472e-10
-3.76312e-09
8.09311e-10
-3.12256e-09
2.23905e-09
-2.20833e-09
4.41232e-09
-9.69824e-10
7.93197e-09
8.64073e-09
1.20615e-11
-1.79959e-10
4.69092e-11
-1.20979e-09
3.76986e-11
-1.81088e-09
-4.07315e-11
-2.12843e-09
-1.96815e-10
-2.2931e-09
-4.31042e-10
-2.33682e-09
-7.38484e-10
-2.27321e-09
-1.10954e-09
-2.1102e-09
-1.53108e-09
-1.85704e-09
-1.98635e-09
-1.52881e-09
-2.45554e-09
-1.14935e-09
-2.91673e-09
-7.52527e-10
-3.34709e-09
-3.79629e-10
-3.72751e-09
-7.15572e-11
-4.04541e-09
1.27779e-10
-4.28818e-09
1.99816e-10
-4.44706e-09
1.4493e-10
-4.51298e-09
8.05454e-12
-4.4723e-09
-1.0784e-10
-4.29897e-09
-2.58524e-11
-3.96738e-09
4.77719e-10
-3.40111e-09
1.67278e-09
-2.5251e-09
3.53632e-09
-1.20045e-09
6.60732e-09
7.44028e-09
-5.31101e-11
-1.2685e-10
-1.22401e-10
-1.1405e-09
-2.17549e-10
-1.71573e-09
-3.59804e-10
-1.98617e-09
-5.60813e-10
-2.0921e-09
-8.21963e-10
-2.07567e-09
-1.13817e-09
-1.957e-09
-1.49963e-09
-1.74875e-09
-1.89277e-09
-1.4639e-09
-2.30113e-09
-1.12045e-09
-2.70618e-09
-7.44297e-10
-3.08742e-09
-3.7129e-10
-3.42791e-09
-3.91351e-11
-3.71428e-09
2.14806e-10
-3.94444e-09
3.57943e-10
-4.11659e-09
3.71964e-10
-4.23243e-09
2.60769e-10
-4.2917e-09
6.73264e-11
-4.28717e-09
-1.12376e-10
-4.18931e-09
-1.23709e-10
-3.95522e-09
2.43635e-10
-3.49466e-09
1.21222e-09
-2.70009e-09
2.74175e-09
-1.3615e-09
5.26873e-09
6.07878e-09
-9.6951e-11
-2.98993e-11
-2.35631e-10
-1.00182e-09
-3.86943e-10
-1.56442e-09
-5.68928e-10
-1.80419e-09
-7.94075e-10
-1.86695e-09
-1.06367e-09
-1.80607e-09
-1.37231e-09
-1.64837e-09
-1.70997e-09
-1.41109e-09
-2.06332e-09
-1.11055e-09
-2.41693e-09
-7.66837e-10
-2.75013e-09
-4.111e-10
-3.04778e-09
-7.36435e-11
-3.29811e-09
2.11199e-10
-3.49617e-09
4.12861e-10
-3.6447e-09
5.06475e-10
-3.75172e-09
4.78983e-10
-3.82712e-09
3.36164e-10
-3.87893e-09
1.19135e-10
-3.90573e-09
-8.55687e-11
-3.88256e-09
-1.46887e-10
-3.75288e-09
1.13956e-10
-3.41057e-09
8.69909e-10
-2.72491e-09
2.05608e-09
-1.44133e-09
3.98515e-09
4.63745e-09
-1.22566e-10
9.26657e-11
-3.01789e-10
-8.22602e-10
-4.85563e-10
-1.38065e-09
-6.8818e-10
-1.60157e-09
-9.21217e-10
-1.63392e-09
-1.18524e-09
-1.54205e-09
-1.47452e-09
-1.35909e-09
-1.77918e-09
-1.10643e-09
-2.08664e-09
-8.03087e-10
-2.37801e-09
-4.75465e-10
-2.63891e-09
-1.50203e-10
-2.85726e-09
1.44703e-10
-3.02485e-09
3.78787e-10
-3.14393e-09
5.31943e-10
-3.21966e-09
5.82206e-10
-3.26481e-09
5.24126e-10
-3.29747e-09
3.68831e-10
-3.33361e-09
1.55276e-10
-3.37751e-09
-4.1673e-11
-3.41024e-09
-1.14153e-10
-3.37075e-09
7.44663e-11
-3.14482e-09
6.43973e-10
-2.59126e-09
1.50253e-09
-1.43322e-09
2.8271e-09
3.20423e-09
-1.332e-10
2.25864e-10
-3.29821e-10
-6.25983e-10
-5.27691e-10
-1.18278e-09
-7.36115e-10
-1.39315e-09
-9.64539e-10
-1.40549e-09
-1.21258e-09
-1.29402e-09
-1.47434e-09
-1.09733e-09
-1.74042e-09
-8.40345e-10
-1.99583e-09
-5.47676e-10
-2.2266e-09
-2.447e-10
-2.42048e-09
4.36792e-11
-2.5687e-09
2.92924e-10
-2.66921e-09
4.79297e-10
-2.72235e-09
5.85079e-10
-2.73594e-09
5.958e-10
-2.72466e-09
5.12838e-10
-2.71092e-09
3.55097e-10
-2.71699e-09
1.61339e-10
-2.75363e-09
-5.02398e-12
-2.8085e-09
-5.92885e-11
-2.82603e-09
9.19925e-11
-2.69995e-09
5.17894e-10
-2.29408e-09
1.09666e-09
-1.33292e-09
1.86595e-09
1.87131e-09
-1.32081e-10
3.57943e-10
-3.28917e-10
-4.29151e-10
-5.26681e-10
-9.85018e-10
-7.29213e-10
-1.19062e-09
-9.43041e-10
-1.19167e-09
-1.16687e-09
-1.07018e-09
-1.39503e-09
-8.6918e-10
-1.61727e-09
-6.18101e-10
-1.82156e-09
-3.43389e-10
-1.99727e-09
-6.89954e-11
-2.13745e-09
1.83862e-10
-2.23572e-09
3.9119e-10
-2.28896e-09
5.32537e-10
-2.29764e-09
5.93758e-10
-2.26911e-09
5.67276e-10
-2.21607e-09
4.59793e-10
-2.15827e-09
2.97302e-10
-2.11761e-09
1.20681e-10
-2.10876e-09
-1.38781e-11
-2.12683e-09
-4.12168e-11
-2.13429e-09
9.94509e-11
-2.0514e-09
4.35008e-10
-1.78583e-09
8.31086e-10
-1.10731e-09
1.18742e-09
7.63999e-10
-1.22312e-10
4.80251e-10
-3.08227e-10
-2.43241e-10
-4.94663e-10
-7.98587e-10
-6.81363e-10
-1.00392e-09
-8.71328e-10
-1.00171e-09
-1.06227e-09
-8.79241e-10
-1.24815e-09
-6.8331e-10
-1.42015e-09
-4.46101e-10
-1.5712e-09
-1.92334e-10
-1.69783e-09
5.76278e-11
-1.7953e-09
2.81336e-10
-1.8609e-09
4.56789e-10
-1.89356e-09
5.65192e-10
-1.89396e-09
5.94164e-10
-1.86766e-09
5.40979e-10
-1.82092e-09
4.13047e-10
-1.76109e-09
2.37475e-10
-1.69741e-09
5.70017e-11
-1.63354e-09
-7.77477e-11
-1.56006e-09
-1.14698e-10
-1.45096e-09
-9.65337e-12
-1.26788e-09
2.51932e-10
-1.01188e-09
5.7509e-10
-5.70946e-10
7.46483e-10
1.93052e-10
-1.06395e-10
5.86642e-10
-2.73896e-10
-7.57447e-11
-4.39454e-10
-6.33034e-10
-6.0269e-10
-8.40693e-10
-7.62156e-10
-8.42245e-10
-9.13372e-10
-7.28028e-10
-1.04796e-09
-5.48726e-10
-1.16082e-09
-3.33239e-10
-1.2494e-09
-1.03755e-10
-1.31197e-09
1.20191e-10
-1.34964e-09
3.19013e-10
-1.36693e-09
4.74073e-10
-1.37157e-09
5.69834e-10
-1.37356e-09
5.96154e-10
-1.38326e-09
5.50677e-10
-1.40942e-09
4.39214e-10
-1.45788e-09
2.85936e-10
-1.52249e-09
1.21604e-10
-1.58312e-09
-1.71176e-11
-1.60114e-09
-9.66743e-11
-1.51011e-09
-1.00682e-10
-1.20516e-09
-5.30211e-11
-5.53995e-10
-7.60752e-11
4.44442e-10
-2.51955e-10
6.37494e-10
-7.35395e-11
6.60176e-10
-2.32965e-10
8.3675e-11
-4.02002e-10
-4.64003e-10
-5.56829e-10
-6.85871e-10
-6.84238e-10
-7.14839e-10
-7.73489e-10
-6.3878e-10
-8.17694e-10
-5.04523e-10
-8.12647e-10
-3.38287e-10
-7.58262e-10
-1.58139e-10
-6.58894e-10
2.0823e-11
-5.24702e-10
1.8482e-10
-3.71905e-10
3.21277e-10
-2.22027e-10
4.19956e-10
-9.99371e-11
4.74065e-10
-3.0628e-11
4.81368e-10
-3.74745e-11
4.46061e-10
-1.34051e-10
3.82512e-10
-3.19801e-10
3.07354e-10
-5.81641e-10
2.44723e-10
-8.99887e-10
2.21572e-10
-1.25998e-09
2.59406e-10
-1.67218e-09
3.59186e-10
-2.19182e-09
4.43562e-10
-2.56506e-09
1.21282e-10
2.50161e-11
-1.95259e-09
-4.66213e-11
7.06792e-10
-1.71125e-10
2.08173e-10
-3.08442e-10
-3.26692e-10
-4.36666e-10
-5.57652e-10
-5.44129e-10
-6.0738e-10
-6.21835e-10
-5.61077e-10
-6.64328e-10
-4.62031e-10
-6.68547e-10
-3.34069e-10
-6.34037e-10
-1.92649e-10
-5.63612e-10
-4.96025e-11
-4.63849e-10
8.5057e-11
-3.45344e-10
2.02772e-10
-2.22293e-10
2.96906e-10
-1.11388e-10
3.63161e-10
-3.04651e-11
4.00445e-10
3.91963e-12
4.11676e-10
-1.79763e-11
4.04408e-10
-9.96542e-11
3.89032e-10
-2.35153e-10
3.80221e-10
-4.08212e-10
3.94631e-10
-5.93378e-10
4.44571e-10
-7.59163e-10
5.2497e-10
-8.93828e-10
5.78225e-10
-1.22419e-09
4.51641e-10
9.63189e-11
-1.29549e-09
-2.45026e-11
7.3129e-10
-1.18623e-10
3.02286e-10
-2.29338e-10
-2.15983e-10
-3.34955e-10
-4.52039e-10
-4.24963e-10
-5.17376e-10
-4.92298e-10
-4.93745e-10
-5.32712e-10
-4.21619e-10
-5.43978e-10
-3.22804e-10
-5.25846e-10
-2.10781e-10
-4.80213e-10
-9.52356e-11
-4.113e-10
1.61444e-11
-3.25652e-10
1.17125e-10
-2.31787e-10
2.03041e-10
-1.39654e-10
2.71029e-10
-5.9646e-11
3.20437e-10
-1.13274e-12
3.53163e-10
2.95009e-11
3.73775e-10
2.95571e-11
3.88976e-10
2.27731e-12
4.075e-10
-4.12192e-11
4.38126e-10
-8.13098e-11
4.8466e-10
-9.29748e-11
5.36633e-10
-6.913e-11
5.54378e-10
-8.42771e-11
4.66787e-10
2.65691e-10
-2.53651e-10
-7.89227e-12
7.39177e-10
-7.66129e-11
3.71001e-10
-1.64738e-10
-1.27863e-10
-2.51063e-10
-3.65719e-10
-3.25497e-10
-4.42945e-10
-3.82037e-10
-4.37207e-10
-4.17222e-10
-3.86435e-10
-4.29363e-10
-3.10664e-10
-4.18319e-10
-2.21825e-10
-3.85492e-10
-1.28062e-10
-3.33812e-10
-3.55358e-11
-2.67657e-10
5.09707e-11
-1.92574e-10
1.27958e-10
-1.14858e-10
1.93314e-10
-4.0899e-11
2.46478e-10
2.37038e-11
2.8856e-10
7.51837e-11
3.22295e-10
1.12555e-10
3.51604e-10
1.38976e-10
3.81078e-10
1.62876e-10
4.14225e-10
1.97454e-10
4.50081e-10
2.55898e-10
4.78187e-10
3.35841e-10
4.74433e-10
3.94309e-10
4.08317e-10
2.83483e-10
3.76517e-10
4.00727e-12
7.35165e-10
-4.3962e-11
4.18964e-10
-1.12946e-10
-5.88845e-11
-1.82777e-10
-2.95892e-10
-2.43668e-10
-3.82058e-10
-2.90261e-10
-3.90617e-10
-3.19609e-10
-3.57087e-10
-3.30348e-10
-2.99926e-10
-3.22364e-10
-2.29809e-10
-2.96668e-10
-1.53758e-10
-2.55325e-10
-7.68775e-11
-2.01329e-10
-3.02483e-12
-1.38383e-10
6.50116e-11
-7.05796e-11
1.25511e-10
-1.94864e-12
1.77847e-10
6.41135e-11
2.22498e-10
1.25521e-10
2.60887e-10
1.82136e-10
2.94988e-10
2.36453e-10
3.26761e-10
2.93885e-10
3.56792e-10
3.61533e-10
3.82432e-10
4.44031e-10
3.95686e-10
5.35329e-10
3.83134e-10
6.11488e-10
3.32156e-10
2.46008e-10
6.48962e-10
1.23281e-11
7.22832e-10
-1.91366e-11
4.50423e-10
-7.20737e-11
-5.95255e-12
-1.2775e-10
-2.4022e-10
-1.7682e-10
-3.32991e-10
-2.14374e-10
-3.53064e-10
-2.37838e-10
-3.33624e-10
-2.46048e-10
-2.91716e-10
-2.38865e-10
-2.3699e-10
-2.1701e-10
-1.75612e-10
-1.81938e-10
-1.11949e-10
-1.35725e-10
-4.92372e-11
-8.08856e-11
1.01731e-11
-2.01286e-11
6.47539e-11
4.39542e-11
1.13764e-10
1.09272e-10
1.5718e-10
1.74643e-10
1.95516e-10
2.40137e-10
2.29494e-10
3.07363e-10
2.59534e-10
3.79216e-10
2.84937e-10
4.58697e-10
3.0295e-10
5.46196e-10
3.08185e-10
6.35758e-10
2.93571e-10
7.13782e-10
2.54132e-10
1.92783e-10
7.67006e-10
1.79564e-11
7.0487e-10
-5.9759e-13
4.68972e-10
-4.01749e-11
3.36199e-11
-8.37479e-11
-1.96651e-10
-1.22504e-10
-2.94238e-10
-1.51941e-10
-3.23628e-10
-1.69756e-10
-3.15809e-10
-1.74922e-10
-2.86549e-10
-1.67271e-10
-2.44641e-10
-1.47289e-10
-1.95593e-10
-1.16004e-10
-1.43232e-10
-7.48637e-11
-9.03768e-11
-2.55915e-11
-3.90984e-11
2.99901e-11
9.1728e-12
9.01774e-11
5.35772e-11
1.53629e-10
9.37285e-11
2.19596e-10
1.29548e-10
2.88089e-10
1.61001e-10
3.59884e-10
1.87738e-10
4.36178e-10
2.08642e-10
5.17671e-10
2.21455e-10
6.03049e-10
2.22806e-10
6.87483e-10
2.09135e-10
7.62857e-10
1.78757e-10
1.34262e-10
8.21377e-10
2.16332e-11
6.83233e-10
1.3138e-11
4.77462e-10
-1.5469e-11
6.22224e-11
-4.87516e-11
-1.63372e-10
-7.85564e-11
-2.64435e-10
-1.00764e-10
-3.01421e-10
-1.13312e-10
-3.0326e-10
-1.15276e-10
-2.84585e-10
-1.06451e-10
-2.53464e-10
-8.71578e-11
-2.14884e-10
-5.81106e-11
-1.72277e-10
-2.03192e-11
-1.28167e-10
2.50241e-11
-8.44407e-11
7.66738e-11
-4.24763e-11
1.33477e-10
-3.22533e-12
1.94518e-10
3.26868e-11
2.59244e-10
6.48216e-11
3.27506e-10
9.27381e-11
3.9948e-10
1.15763e-10
4.75344e-10
1.32777e-10
5.54685e-10
1.42113e-10
6.35723e-10
1.41766e-10
7.14797e-10
1.30061e-10
7.86811e-10
1.06742e-10
7.40756e-11
8.46997e-10
2.39167e-11
6.59312e-10
2.31426e-11
4.78231e-10
3.55557e-12
8.18053e-11
-2.10212e-11
-1.38798e-10
-4.30904e-11
-2.42367e-10
-5.8919e-11
-2.85592e-10
-6.66509e-11
-2.95528e-10
-6.54487e-11
-2.85786e-10
-5.50915e-11
-2.63819e-10
-3.57706e-11
-2.34203e-10
-7.97947e-12
-2.00067e-10
2.75774e-11
-1.63722e-10
7.00686e-11
-1.26931e-10
1.18627e-10
-9.10336e-11
1.72442e-10
-5.70399e-11
2.30845e-10
-2.57166e-11
2.93364e-10
2.30273e-12
3.59713e-10
2.63887e-11
4.29689e-10
4.57867e-11
5.02939e-10
5.95262e-11
5.78606e-10
6.64454e-11
6.5497e-10
6.54014e-11
7.29326e-10
5.57038e-11
7.98369e-10
3.76983e-11
1.33102e-11
8.59133e-10
2.52346e-11
6.34073e-10
3.03895e-11
4.73071e-10
1.81609e-11
9.403e-11
9.13919e-13
-1.21554e-10
-1.45201e-11
-2.26935e-10
-2.47626e-11
-2.7535e-10
-2.81569e-11
-2.92132e-10
-2.39501e-11
-2.8999e-10
-1.19117e-11
-2.75856e-10
7.85109e-12
-2.53964e-10
3.50033e-11
-2.27217e-10
6.90518e-11
-1.97769e-10
1.0941e-10
-1.67288e-10
1.5546e-10
-1.37083e-10
2.06611e-10
-1.0819e-10
2.6234e-10
-8.14454e-11
3.22215e-10
-5.75726e-11
3.85865e-10
-3.72612e-11
4.52888e-10
-2.12375e-11
5.22703e-10
-1.02891e-11
5.94352e-10
-5.20505e-12
6.66362e-10
-6.60915e-12
7.36757e-10
-1.46922e-11
8.0335e-10
-2.88947e-11
-4.76333e-11
8.64293e-10
2.58887e-11
6.08181e-10
3.5591e-11
4.63365e-10
2.93558e-11
1.00262e-10
1.82432e-11
-1.10443e-10
8.47258e-12
-2.17165e-10
3.07827e-12
-2.69955e-10
3.53705e-12
-2.9259e-10
1.05193e-11
-2.9697e-10
2.42467e-11
-2.8958e-10
4.46706e-11
-2.74385e-10
7.15619e-11
-2.54106e-10
1.04574e-10
-2.30778e-10
1.43286e-10
-2.05998e-10
1.87247e-10
-1.81043e-10
2.36008e-10
-1.5695e-10
2.89144e-10
-1.34581e-10
3.46254e-10
-1.14682e-10
4.06931e-10
-9.79386e-11
4.70699e-10
-8.50063e-11
5.3692e-10
-7.65104e-11
6.04699e-10
-7.29845e-11
6.72842e-10
-7.47532e-11
7.39919e-10
-8.17698e-11
8.04467e-10
-9.34429e-11
-1.08503e-10
8.65336e-10
2.61052e-11
5.82072e-10
3.92849e-11
4.50181e-10
3.79186e-11
1.01625e-10
3.19244e-11
-1.04451e-10
2.69536e-11
-2.12195e-10
2.57368e-11
-2.68738e-10
2.95778e-11
-2.96429e-10
3.90646e-11
-3.06455e-10
5.44032e-11
-3.04916e-10
7.55752e-11
-2.95554e-10
1.02424e-10
-2.80952e-10
1.34701e-10
-2.63053e-10
1.72099e-10
-2.43395e-10
2.14281e-10
-2.23224e-10
2.60895e-10
-2.03563e-10
3.11586e-10
-1.85271e-10
3.65986e-10
-1.69083e-10
4.23696e-10
-1.55648e-10
4.84237e-10
-1.45548e-10
5.47006e-10
-1.39279e-10
6.11232e-10
-1.37211e-10
6.75983e-10
-1.39505e-10
7.4023e-10
-1.46017e-10
8.02994e-10
-1.56207e-10
-1.69079e-10
8.63569e-10
2.60346e-11
5.56034e-10
4.18711e-11
4.34341e-10
4.44544e-11
9.90386e-11
4.27093e-11
-1.02708e-10
4.17887e-11
-2.11274e-10
4.41401e-11
-2.71088e-10
5.09142e-11
-3.03201e-10
6.26195e-11
-3.18157e-10
7.94345e-11
-3.21728e-10
1.01357e-10
-3.17473e-10
1.28274e-10
-3.07866e-10
1.60004e-10
-2.9478e-10
1.96317e-10
-2.79706e-10
2.36954e-10
-2.63859e-10
2.81634e-10
-2.48242e-10
3.30056e-10
-2.33693e-10
3.81895e-10
-2.20921e-10
4.36781e-10
-2.10534e-10
4.94275e-10
-2.03042e-10
5.53848e-10
-1.98853e-10
6.1487e-10
-1.98234e-10
6.76629e-10
-2.01265e-10
7.38394e-10
-2.07782e-10
7.99516e-10
-2.1733e-10
-2.29141e-10
8.59578e-10
2.57871e-11
5.30243e-10
4.36428e-11
4.16481e-10
4.94172e-11
9.32615e-11
5.11902e-11
-1.04482e-10
5.36638e-11
-2.13748e-10
5.90416e-11
-2.76464e-10
6.83309e-11
-3.12487e-10
8.19645e-11
-3.31788e-10
1.00091e-10
-3.39851e-10
1.2271e-10
-3.40088e-10
1.49735e-10
-3.34888e-10
1.81027e-10
-3.2607e-10
2.1641e-10
-3.15088e-10
2.55681e-10
-3.03129e-10
2.98611e-10
-2.91172e-10
3.44949e-10
-2.8003e-10
3.94411e-10
-2.70383e-10
4.46672e-10
-2.62794e-10
5.01351e-10
-2.57722e-10
5.58007e-10
-2.5551e-10
6.16142e-10
-2.56369e-10
6.75223e-10
-2.60347e-10
7.3474e-10
-2.67298e-10
7.94273e-10
-2.76863e-10
-2.88466e-10
8.53598e-10
2.54322e-11
5.04808e-10
4.48131e-11
3.97097e-10
5.31627e-11
8.49094e-11
5.78291e-11
-1.09149e-10
6.31323e-11
-2.19051e-10
7.10522e-11
-2.84382e-10
8.24716e-11
-3.23904e-10
9.77526e-11
-3.47065e-10
1.1701e-10
-3.59104e-10
1.40237e-10
-3.63311e-10
1.67361e-10
-3.62008e-10
1.98271e-10
-3.56977e-10
2.32827e-10
-3.49642e-10
2.70868e-10
-3.41167e-10
3.12206e-10
-3.32509e-10
3.56632e-10
-3.24455e-10
4.03904e-10
-3.17655e-10
4.53747e-10
-3.12637e-10
5.05844e-10
-3.09819e-10
5.5984e-10
-3.09506e-10
6.1535e-10
-3.11879e-10
6.71987e-10
-3.16984e-10
7.29401e-10
-3.24712e-10
7.87334e-10
-3.34797e-10
-3.46821e-10
8.45688e-10
2.50177e-11
4.79787e-10
4.55354e-11
3.76576e-10
5.59504e-11
7.44922e-11
6.29882e-11
-1.16188e-10
7.06302e-11
-2.26692e-10
8.06669e-11
-2.94417e-10
9.38666e-11
-3.371e-10
1.10527e-10
-3.63721e-10
1.3073e-10
-3.79303e-10
1.54457e-10
-3.87034e-10
1.81641e-10
-3.89189e-10
2.12187e-10
-3.8752e-10
2.45982e-10
-3.83435e-10
2.82893e-10
-3.78076e-10
3.22768e-10
-3.72383e-10
3.65433e-10
-3.67119e-10
4.10688e-10
-3.6291e-10
4.58306e-10
-3.60254e-10
5.0803e-10
-3.59543e-10
5.59582e-10
-3.61058e-10
6.12672e-10
-3.64971e-10
6.67026e-10
-3.71338e-10
7.22412e-10
-3.80098e-10
7.78685e-10
-3.9107e-10
-4.03969e-10
8.35833e-10
2.45694e-11
4.55215e-10
4.59198e-11
3.55223e-10
5.79804e-11
6.24295e-11
6.69468e-11
-1.25155e-10
7.65089e-11
-2.36253e-10
8.82863e-11
-3.06192e-10
1.02951e-10
-3.51761e-10
1.20742e-10
-3.81508e-10
1.41708e-10
-4.00265e-10
1.65818e-10
-4.11139e-10
1.93003e-10
-4.1637e-10
2.23179e-10
-4.17693e-10
2.56249e-10
-4.16502e-10
2.92103e-10
-4.13929e-10
3.30617e-10
-4.10895e-10
3.71648e-10
-4.08149e-10
4.15033e-10
-4.06294e-10
4.60589e-10
-4.0581e-10
5.08113e-10
-4.07067e-10
5.57393e-10
-4.10338e-10
6.08215e-10
-4.15793e-10
6.60389e-10
-4.23512e-10
7.1377e-10
-4.33479e-10
7.6829e-10
-4.4559e-10
-4.59671e-10
8.23993e-10
2.41053e-11
4.31107e-10
4.60444e-11
3.33281e-10
5.94046e-11
4.90673e-11
6.99273e-11
-1.35678e-10
8.10454e-11
-2.4737e-10
9.42359e-11
-3.1938e-10
1.10083e-10
-3.67605e-10
1.28775e-10
-4.00196e-10
1.50331e-10
-4.21816e-10
1.74703e-10
-4.35507e-10
2.01819e-10
-4.43482e-10
2.316e-10
-4.47471e-10
2.6396e-10
-4.4886e-10
2.98807e-10
-4.48774e-10
3.36037e-10
-4.48125e-10
3.75536e-10
-4.47647e-10
4.17171e-10
-4.47929e-10
4.60798e-10
-4.49437e-10
5.0626e-10
-4.52529e-10
5.53397e-10
-4.57474e-10
6.02056e-10
-4.64452e-10
6.52108e-10
-4.73565e-10
7.03469e-10
-4.8484e-10
7.56124e-10
-4.98245e-10
-5.13694e-10
8.10146e-10
2.36319e-11
4.07472e-10
4.59657e-11
3.10945e-10
6.03381e-11
3.46931e-11
7.21e-11
-1.47441e-10
8.44642e-11
-2.59733e-10
9.878e-11
-3.33693e-10
1.15559e-10
-3.8438e-10
1.34944e-10
-4.19576e-10
1.56925e-10
-4.43793e-10
1.81441e-10
-4.60017e-10
2.08412e-10
-4.7045e-10
2.37762e-10
-4.76817e-10
2.69411e-10
-4.80506e-10
3.03281e-10
-4.82641e-10
3.39285e-10
-4.84127e-10
3.77329e-10
-4.8569e-10
4.17308e-10
-4.87909e-10
4.5911e-10
-4.91238e-10
5.02614e-10
-4.96033e-10
5.47701e-10
-5.02562e-10
5.94264e-10
-5.11015e-10
6.42219e-10
-5.21519e-10
6.91521e-10
-5.34143e-10
7.42187e-10
-5.4891e-10
-5.65813e-10
7.94305e-10
2.31532e-11
3.84317e-10
4.57195e-11
2.88375e-10
6.08655e-11
1.95453e-11
7.36001e-11
-1.60176e-10
8.69418e-11
-2.73074e-10
1.02134e-10
-3.48883e-10
1.19624e-10
-4.01866e-10
1.39514e-10
-4.39461e-10
1.6177e-10
-4.66044e-10
1.86315e-10
-4.84557e-10
2.13065e-10
-4.97195e-10
2.41939e-10
-5.05688e-10
2.72866e-10
-5.1143e-10
3.05773e-10
-5.15546e-10
3.40589e-10
-5.18942e-10
3.77236e-10
-5.22336e-10
4.15631e-10
-5.26303e-10
4.55685e-10
-5.31292e-10
4.97307e-10
-5.37655e-10
5.4041e-10
-5.45664e-10
5.84917e-10
-5.55522e-10
6.30775e-10
-5.67378e-10
6.77966e-10
-5.81335e-10
7.26521e-10
-5.97465e-10
-6.15821e-10
7.76529e-10
2.26665e-11
3.61647e-10
4.53312e-11
2.65708e-10
6.10509e-11
3.82397e-12
7.45307e-11
-1.73656e-10
8.86229e-11
-2.87164e-10
1.04476e-10
-3.64733e-10
1.22481e-10
-4.19868e-10
1.42709e-10
-4.59683e-10
1.65102e-10
-4.88432e-10
1.8957e-10
-5.09021e-10
2.16021e-10
-5.23642e-10
2.44374e-10
-5.34037e-10
2.74557e-10
-5.4161e-10
3.06506e-10
-5.47493e-10
3.40158e-10
-5.52592e-10
3.75448e-10
-5.57626e-10
4.1231e-10
-5.63164e-10
4.50673e-10
-5.69655e-10
4.90468e-10
-5.7745e-10
5.3163e-10
-5.86826e-10
5.74103e-10
-5.97996e-10
6.17855e-10
-6.11129e-10
6.62878e-10
-6.26358e-10
7.09208e-10
-6.43794e-10
-6.63539e-10
7.56925e-10
2.21712e-11
3.39474e-10
4.48186e-11
2.43058e-10
6.09406e-11
-1.22998e-11
7.49755e-11
-1.87691e-10
8.96221e-11
-3.0181e-10
1.05949e-10
-3.81057e-10
1.24301e-10
-4.38216e-10
1.44718e-10
-4.80094e-10
1.67124e-10
-5.10833e-10
1.91416e-10
-5.33308e-10
2.17497e-10
-5.49718e-10
2.4528e-10
-5.61816e-10
2.74695e-10
-5.71022e-10
3.05681e-10
-5.78477e-10
3.38182e-10
-5.85091e-10
3.72143e-10
-5.91586e-10
4.07508e-10
-5.98529e-10
4.44222e-10
-6.06369e-10
4.82229e-10
-6.15457e-10
5.21479e-10
-6.26075e-10
5.6193e-10
-6.38447e-10
6.03558e-10
-6.52757e-10
6.46362e-10
-6.69162e-10
6.90369e-10
-6.87802e-10
-7.08815e-10
7.35646e-10
2.16627e-11
3.17808e-10
4.41942e-11
2.20523e-10
6.05746e-11
-2.86819e-11
7.50009e-11
-2.02117e-10
9.00369e-11
-3.16844e-10
1.06678e-10
-3.97695e-10
1.25228e-10
-4.56762e-10
1.45703e-10
-5.00564e-10
1.68011e-10
-5.33136e-10
1.92038e-10
-5.57331e-10
2.17679e-10
-5.75354e-10
2.44845e-10
-5.88979e-10
2.73465e-10
-5.99639e-10
3.03479e-10
-6.08489e-10
3.34835e-10
-6.16446e-10
3.67485e-10
-6.24234e-10
4.01381e-10
-6.32424e-10
4.36476e-10
-6.41463e-10
4.72724e-10
-6.51705e-10
5.10083e-10
-6.63434e-10
5.4852e-10
-6.76884e-10
5.88011e-10
-6.92249e-10
6.28553e-10
-7.09703e-10
6.70162e-10
-7.29411e-10
-7.51536e-10
7.12882e-10
2.11403e-11
2.96665e-10
4.34679e-11
1.98193e-10
5.99837e-11
-4.51995e-11
7.4664e-11
-2.16798e-10
8.99462e-11
-3.32125e-10
1.06764e-10
-4.14509e-10
1.25385e-10
-4.75379e-10
1.45804e-10
-5.20977e-10
1.67916e-10
-5.55242e-10
1.91597e-10
-5.81007e-10
2.16736e-10
-6.00488e-10
2.43241e-10
-6.15479e-10
2.71038e-10
-6.27433e-10
3.00068e-10
-6.37516e-10
3.30281e-10
-6.46657e-10
3.61632e-10
-6.55584e-10
3.94079e-10
-6.6487e-10
4.27578e-10
-6.74962e-10
4.62091e-10
-6.86217e-10
4.97578e-10
-6.98922e-10
5.34008e-10
-7.13313e-10
5.71355e-10
-7.29596e-10
6.09609e-10
-7.47957e-10
6.48769e-10
-7.68571e-10
-7.91622e-10
6.88856e-10
2.06006e-11
2.76061e-10
4.26492e-11
1.76141e-10
5.91952e-11
-6.17474e-11
7.40111e-11
-2.31614e-10
8.94197e-11
-3.47532e-10
1.06295e-10
-4.31381e-10
1.24877e-10
-4.93956e-10
1.4514e-10
-5.41236e-10
1.6697e-10
-5.77066e-10
1.90235e-10
-6.04266e-10
2.14816e-10
-6.25065e-10
2.40619e-10
-6.41278e-10
2.67567e-10
-6.54378e-10
2.956e-10
-6.65547e-10
3.2467e-10
-6.75725e-10
3.54732e-10
-6.85645e-10
3.85745e-10
-6.95883e-10
4.17671e-10
-7.06888e-10
4.50469e-10
-7.19016e-10
4.84104e-10
-7.32556e-10
5.18541e-10
-7.47749e-10
5.53749e-10
-7.64804e-10
5.89705e-10
-7.83913e-10
6.26393e-10
-8.0526e-10
-8.29036e-10
6.63807e-10
2.00443e-11
2.56014e-10
4.17459e-11
1.54436e-10
5.82319e-11
-7.82356e-11
7.3084e-11
-2.46466e-10
8.85148e-11
-3.62961e-10
1.05348e-10
-4.48212e-10
1.23796e-10
-5.12399e-10
1.43818e-10
-5.61253e-10
1.65292e-10
-5.98534e-10
1.88077e-10
-6.27046e-10
2.12051e-10
-6.49035e-10
2.37116e-10
-6.66338e-10
2.63192e-10
-6.8045e-10
2.90218e-10
-6.92571e-10
3.18143e-10
-7.03649e-10
3.46924e-10
-7.14425e-10
3.76521e-10
-7.25478e-10
4.06893e-10
-7.37259e-10
4.38002e-10
-7.50124e-10
4.69807e-10
-7.64362e-10
5.02272e-10
-7.80214e-10
5.35356e-10
-7.97889e-10
5.69026e-10
-8.17582e-10
6.03246e-10
-8.39481e-10
-8.63775e-10
6.37985e-10
1.94699e-11
2.36541e-10
4.07666e-11
1.33136e-10
5.71154e-11
-9.45866e-11
7.19176e-11
-2.61269e-10
8.72843e-11
-3.78327e-10
1.03989e-10
-4.64913e-10
1.22222e-10
-5.30627e-10
1.41931e-10
-5.80957e-10
1.62983e-10
-6.19581e-10
1.85236e-10
-6.49293e-10
2.08562e-10
-6.72356e-10
2.32857e-10
-6.9063e-10
2.58042e-10
-7.05632e-10
2.84051e-10
-7.18578e-10
3.10834e-10
-7.30429e-10
3.38344e-10
-7.41934e-10
3.6654e-10
-7.53674e-10
3.95382e-10
-7.66101e-10
4.24828e-10
-7.7957e-10
4.54834e-10
-7.94368e-10
4.85356e-10
-8.10736e-10
5.16348e-10
-8.28881e-10
5.4776e-10
-8.48995e-10
5.79543e-10
-8.71264e-10
-8.95872e-10
6.1164e-10
1.88796e-11
2.17658e-10
3.97189e-11
1.12294e-10
5.58643e-11
-1.10734e-10
7.05451e-11
-2.75951e-10
8.57723e-11
-3.93553e-10
1.02277e-10
-4.81415e-10
1.20227e-10
-5.48573e-10
1.3956e-10
-6.00284e-10
1.60138e-10
-6.40153e-10
1.81813e-10
-6.70962e-10
2.04455e-10
-6.94993e-10
2.27956e-10
-7.14127e-10
2.52234e-10
-7.29906e-10
2.77222e-10
-7.43563e-10
3.02865e-10
-7.56071e-10