/*--------------------------------*- C++ -*----------------------------------*\
  =========                 |
  \\      /  F ield         | OpenFOAM: The Open Source CFD Toolbox
   \\    /   O peration     | Website:  https://openfoam.org
    \\  /    A nd           | Version:  13
     \\/     M anipulation  |
\*---------------------------------------------------------------------------*/
FoamFile
{
    format      ascii;
    class       volVectorField;
    location    "1";
    object      U;
}
// * * * * * * * * * * * * * * * * * * * * * * * * * * * * * * * * * * * * * //

dimensions      [0 1 -1 0 0 0 0];

internalField   nonuniform List<vector> 
6440
(
(-0.00153163 0.00309231 0)
(-0.00448087 0.00486318 0)
(-0.00849828 0.00410101 -5.83495e-19)
(-0.0114511 0.00334551 5.77852e-19)
(-0.0139838 0.00310952 0)
(-0.0161382 0.00318061 -1.25556e-18)
(-0.0180447 0.00343721 1.24141e-18)
(-0.0197342 0.0037995 0)
(-0.0211969 0.00421538 2.84596e-18)
(-0.0224011 0.00464504 -2.80819e-18)
(-0.0233014 0.00505559 -3.13285e-18)
(-0.0238642 0.00542811 -1.98161e-19)
(-0.0240518 0.00573292 -2.03304e-19)
(-0.0238285 0.00593329 3.38916e-18)
(-0.0231801 0.00600919 3.73831e-18)
(-0.0221183 0.00595432 -3.6784e-18)
(-0.0206692 0.0057654 0)
(-0.0188853 0.00545095 8.20752e-18)
(-0.0168329 0.00501639 3.243e-19)
(-0.0145916 0.00446312 -8.24662e-18)
(-0.0122371 0.00376777 8.66827e-18)
(-0.00974494 0.00280847 -1.72674e-17)
(-0.00769016 0.00182259 8.59728e-18)
(-0.00511798 0.000197882 -8.81535e-18)
(-0.0015394 -0.00127657 -5.0408e-20)
(-0.000795816 0.00765086 0)
(-0.00225634 0.0121945 0)
(-0.00444289 0.0102421 -6.02482e-19)
(-0.00590561 0.00788193 5.99874e-19)
(-0.0071234 0.00659095 0)
(-0.00800573 0.00589172 -1.28225e-18)
(-0.00867883 0.00551401 1.27295e-18)
(-0.00918566 0.00528442 0)
(-0.00954455 0.00509355 0)
(-0.00973976 0.00485886 0)
(-0.00973923 0.0045285 0)
(-0.0095371 0.00407681 -3.36709e-18)
(-0.00909726 0.00345752 3.3221e-18)
(-0.00839743 0.00264023 0)
(-0.00744101 0.00167861 3.92133e-18)
(-0.00627666 0.000688269 -3.83247e-18)
(-0.00495907 -0.000237359 0)
(-0.00353854 -0.00103811 0)
(-0.00209755 -0.00164064 9.21361e-18)
(-0.000735969 -0.00196727 -9.00454e-18)
(0.00043012 -0.00195359 9.75598e-18)
(0.00143977 -0.0016797 -9.54827e-18)
(0.00149299 -0.000628677 -1.01032e-17)
(0.000621284 0.000626004 -2.63567e-19)
(0.000958331 -0.000729527 6.96742e-18)
(-8.04015e-05 0.00892081 0)
(-0.000228623 0.0141267 0)
(-0.000629249 0.0115414 -5.75339e-19)
(-0.00077914 0.00847899 5.75104e-19)
(-0.000928736 0.0066348 0)
(-0.000889921 0.00548043 -1.20138e-18)
(-0.000735947 0.00471334 2.41893e-18)
(-0.000491995 0.0041273 -1.21503e-18)
(-0.000185407 0.00360345 2.61011e-18)
(0.00017314 0.00306265 -2.57161e-18)
(0.000556496 0.00248559 -2.83912e-18)
(0.000965798 0.00186878 -1.97408e-19)
(0.00138102 0.00126068 2.92811e-18)
(0.00180279 0.000715527 3.34194e-18)
(0.0022333 0.000303868 2.74795e-19)
(0.00268379 9.53042e-05 -3.47768e-18)
(0.00317635 0.000132731 0)
(0.0037236 0.000461186 8.48374e-18)
(0.00433178 0.00114893 -8.31967e-18)
(0.00498179 0.00229255 0)
(0.00567108 0.00398418 9.80919e-18)
(0.00668067 0.00618647 -1.97805e-17)
(0.00774789 0.00944006 9.96127e-18)
(0.00670953 0.0128792 -1.04509e-17)
(0.00406852 0.00724547 7.19649e-18)
(0.000333326 0.00818731 0)
(0.000928443 0.012745 0)
(0.00160357 0.00994983 -5.46739e-19)
(0.00219339 0.00671307 5.45588e-19)
(0.0026029 0.00458403 0)
(0.0030467 0.00309704 -1.1218e-18)
(0.00348708 0.00199298 2.24771e-18)
(0.00390461 0.00109646 -1.12382e-18)
(0.00425807 0.000339225 0)
(0.00452472 -0.000310245 0)
(0.00467678 -0.000830526 0)
(0.00470857 -0.00118991 -2.70129e-18)
(0.00462853 -0.00134482 2.65368e-18)
(0.00446431 -0.00124856 3.05333e-18)
(0.0042612 -0.00085597 -2.99792e-18)
(0.00407966 -0.00013072 0)
(0.00398969 0.000957498 7.53613e-18)
(0.00407423 0.00244537 -7.4046e-18)
(0.0043982 0.00441592 0)
(0.00503247 0.00693632 0)
(0.00609868 0.0100742 0)
(0.00802468 0.0138555 0)
(0.0111208 0.0186254 0)
(0.0107123 0.0235961 -1.01961e-17)
(0.00633517 0.0137114 -5.64864e-20)
(0.000512856 0.00661568 0)
(0.00142538 0.00998521 0)
(0.00257875 0.00731042 -5.2761e-19)
(0.00345025 0.00431389 5.26188e-19)
(0.00403937 0.0021968 0)
(0.00454066 0.000604777 -1.07016e-18)
(0.00494243 -0.000650147 2.13635e-18)
(0.00522539 -0.00166784 -1.06487e-18)
(0.00535981 -0.00248283 0)
(0.00531981 -0.00308703 0)
(0.00509426 -0.00344562 0)
(0.00469136 -0.00351113 -2.51093e-18)
(0.00414127 -0.00323276 2.47072e-18)
(0.00349828 -0.00256895 2.84125e-18)
(0.00283847 -0.00149215 -2.79478e-18)
(0.00225659 1.2723e-05 0)
(0.00186268 0.00195375 7.08577e-18)
(0.00179422 0.00434334 -6.97318e-18)
(0.00212541 0.00727051 0)
(0.00303047 0.010678 0)
(0.00467 0.0146628 0)
(0.0075347 0.0193324 0)
(0.0123547 0.0249754 0)
(0.0126583 0.0310717 -9.64613e-18)
(0.00760741 0.0184366 6.75838e-18)
(0.000538677 0.00487318 0)
(0.00149355 0.00696222 0)
(0.00273258 0.00456329 -5.16146e-19)
(0.00361645 0.00197382 5.14605e-19)
(0.00417615 3.09421e-05 0)
(0.00456934 -0.0014898 -1.03676e-18)
(0.00479923 -0.00271542 2.06701e-18)
(0.00484915 -0.00368911 -1.02949e-18)
(0.00470375 -0.00441891 2.14063e-18)
(0.0043507 -0.00487806 -2.11265e-18)
(0.00379224 -0.00501813 0)
(0.00305042 -0.00478439 -2.37728e-18)
(0.00217081 -0.00412772 -1.6676e-19)
(0.00122484 -0.00301538 5.1445e-18)
(0.000309008 -0.00143767 -2.63195e-18)
(-0.000463528 0.000595842 0)
(-0.000963057 0.00306817 6.62073e-18)
(-0.0010394 0.00597677 5.89437e-19)
(-0.000590706 0.0093618 5.99966e-19)
(0.000589392 0.0131336 -7.4814e-18)
(0.00267515 0.0174422 0)
(0.00615896 0.022519 0)
(0.0121298 0.0285742 0)
(0.0131299 0.0354285 -8.90894e-18)
(0.00808442 0.0215535 6.28703e-18)
(0.000481355 0.00330063 0)
(0.00132808 0.00425805 0)
(0.00243497 0.00217708 -5.09802e-19)
(0.00318618 3.19601e-05 5.07176e-19)
(0.00361008 -0.00163568 1.01704e-18)
(0.00383114 -0.00297885 -2.02409e-18)
(0.00385175 -0.00405606 2.02656e-18)
(0.00367049 -0.00488938 -1.00912e-18)
(0.003282 -0.00546417 0)
(0.00268589 -0.00573909 2.12823e-18)
(0.00189507 -0.00566008 -2.10213e-18)
(0.000942895 -0.00517403 -2.27877e-18)
(-0.000112805 -0.00423921 2.24911e-18)
(-0.00119265 -0.00283766 2.52698e-18)
(-0.00219907 -0.000978011 -2.49248e-18)
(-0.0030163 0.00130697 0)
(-0.0035057 0.00397752 6.13947e-18)
(-0.00352789 0.0070253 -6.04888e-18)
(-0.00295093 0.0104485 0)
(-0.00160229 0.0142229 7.36591e-18)
(0.000713813 0.0185229 -7.19002e-18)
(0.00446823 0.0237053 0)
(0.0110472 0.0298437 0)
(0.0126495 0.037136 -8.07208e-18)
(0.00799769 0.0231886 -4.32258e-20)
(0.000387217 0.00202823 0)
(0.00105777 0.00209239 0)
(0.00193076 0.000316291 -5.05815e-19)
(0.00248266 -0.00139815 5.02018e-19)
(0.00273179 -0.00276878 0)
(0.00276795 -0.00387758 -1.00571e-18)
(0.00260062 -0.00475821 9.96586e-19)
(0.00223477 -0.00540897 0)
(0.00167316 -0.00580127 0)
(0.000924228 -0.00588802 0)
(9.87945e-06 -0.00561694 0)
(-0.00102706 -0.00494062 -2.20312e-18)
(-0.002127 -0.00382857 2.17705e-18)
(-0.0032164 -0.00227696 0)
(-0.00419826 -0.000319555 0)
(-0.00496179 0.00199179 0)
(-0.00538038 0.00460603 0)
(-0.00532266 0.00750349 0)
(-0.00466998 0.0107073 6.32107e-18)
(-0.00326528 0.0142414 -6.20519e-18)
(-0.000921469 0.018331 0)
(0.00283275 0.0233814 0)
(0.00955876 0.0293823 0)
(0.0116122 0.0368257 -7.20488e-18)
(0.00754086 0.0235926 5.14444e-18)
(0.000283508 0.00107904 0)
(0.000759464 0.000500152 0)
(0.00136862 -0.000998798 -5.02588e-19)
(0.00170814 -0.00234098 4.98985e-19)
(0.00178325 -0.00342237 0)
(0.00166031 -0.00429324 -9.99869e-19)
(0.00135017 -0.00496493 1.99327e-18)
(0.000861005 -0.00542219 -9.92907e-19)
(0.00020242 -0.00563085 0)
(-0.000607831 -0.00554389 0)
(-0.00153981 -0.00511536 2.09173e-18)
(-0.00254541 -0.00431393 -4.21221e-18)
(-0.00356875 -0.00312798 2.11882e-18)
(-0.00453331 -0.00158619 2.2856e-18)
(-0.00535531 0.000257005 -2.2544e-18)
(-0.00595 0.00234375 0)
(-0.00623268 0.00464788 -5.1585e-18)
(-0.00610728 0.00718703 5.07407e-18)
(-0.0054754 0.0100409 0)
(-0.00418313 0.0132843 0)
(-0.00203676 0.0171515 0)
(0.00145269 0.0220082 6.2718e-18)
(0.00794379 0.0277809 -6.10008e-18)
(0.0102815 0.035135 -6.35759e-18)
(0.00686411 0.0230516 4.5616e-18)
(0.000185287 0.000426971 0)
(0.000476398 -0.000569295 0)
(0.000835865 -0.00183376 0)
(0.000981762 -0.00286968 0)
(0.000910084 -0.00369756 0)
(0.000668474 -0.00434795 0)
(0.00026705 -0.00482045 0)
(-0.000282099 -0.00509436 0)
(-0.000959646 -0.00513758 -2.01406e-18)
(-0.00174034 -0.00491375 1.99677e-18)
(-0.00258604 -0.00439731 0)
(-0.00345158 -0.00358015 0)
(-0.00428433 -0.00247363 0)
(-0.00503713 -0.00109732 0)
(-0.00566394 0.000515866 0)
(-0.00611519 0.00233298 0)
(-0.00633567 0.00434338 0)
(-0.00623743 0.00656089 -4.81936e-18)
(-0.00572633 0.00907706 4.74249e-18)
(-0.00465363 0.0119952 0)
(-0.00282007 0.0155335 -5.30528e-18)
(0.000266239 0.0200353 5.18254e-18)
(0.00626229 0.0254342 0)
(0.00872631 0.0325075 0)
(0.00603204 0.0218003 0)
(0.000100127 2.4483e-05 0)
(0.00023166 -0.0012073 0)
(0.000378654 -0.00228266 0)
(0.000367055 -0.00308082 0)
(0.000185468 -0.00369784 0)
(-0.000132074 -0.00415661 0)
(-0.000573909 -0.00445472 9.95172e-19)
(-0.00112178 -0.00457577 -9.88349e-19)
(-0.00175255 -0.00449807 -2.00019e-18)
(-0.00243669 -0.00420186 1.98035e-18)
(-0.00314248 -0.00367087 2.01381e-18)
(-0.00383566 -0.00290097 -1.98942e-18)
(-0.00448398 -0.00190018 0)
(-0.00506051 -0.000686516 2.05342e-18)
(-0.00553828 0.000712993 4.95291e-20)
(-0.00588922 0.00227363 -2.04065e-18)
(-0.00607519 0.00398578 0)
(-0.00603255 0.00587268 -4.311e-18)
(-0.00566613 0.0080225 4.24196e-18)
(-0.00484379 0.0105833 0)
(-0.00336812 0.0137568 0)
(-0.000769318 0.0178338 4.72531e-18)
(0.00457344 0.0227344 -4.60876e-18)
(0.00702497 0.0292924 0)
(0.00510554 0.0199959 0)
(3.1637e-05 -0.000181697 0)
(3.56188e-05 -0.00151388 0)
(1.70365e-05 -0.00244491 0)
(-0.000111242 -0.00306583 0)
(-0.000364334 -0.00351528 0)
(-0.000717433 -0.0038191 0)
(-0.0011582 -0.00397943 0)
(-0.00166737 -0.00398673 0)
(-0.00222166 -0.003827 0)
(-0.00279568 -0.0034875 0)
(-0.00336382 -0.00296116 -1.97139e-18)
(-0.0039013 -0.00224955 1.94843e-18)
(-0.00438738 -0.00136279 0)
(-0.00480725 -0.000318668 0)
(-0.00515139 0.000861121 0)
(-0.00540988 0.00215866 0)
(-0.00556473 0.00357322 0)
(-0.00557761 0.0051381 0)
(-0.00536245 0.00693709 0)
(-0.00479633 0.00914056 0)
(-0.00368917 0.0119286 0)
(-0.00160857 0.0155429 -4.08452e-18)
(0.00297636 0.0198681 3.98808e-18)
(0.00527409 0.0257416 0)
(0.0041388 0.0177885 0)
(-1.9468e-05 -0.000243034 0)
(-0.000108885 -0.001584 0)
(-0.000245646 -0.00241086 0)
(-0.00045216 -0.00290511 0)
(-0.000745311 -0.00322708 9.83488e-19)
(-0.00110663 -0.00340982 -9.77685e-19)
(-0.00152482 -0.00346197 0)
(-0.0019813 -0.00338131 0)
(-0.00245423 -0.00316222 -1.95151e-18)
(-0.00292098 -0.00279977 3.87629e-18)
(-0.00336013 -0.00229364 8.3146e-21)
(-0.00375395 -0.00165029 -1.90987e-18)
(-0.00409063 -0.000882645 0)
(-0.00436641 -7.94802e-06 0)
(-0.00458667 0.000958652 1.84006e-18)
(-0.00475911 0.0020084 -1.81286e-18)
(-0.00488398 0.00314821 -3.55018e-18)
(-0.00494194 0.00441773 6.34249e-22)
(-0.00486874 0.00590212 3.43608e-18)
(-0.00454723 0.0077576 3.44293e-18)
(-0.00380141 0.0101586 -3.39387e-18)
(-0.00223754 0.0132877 3.54432e-18)
(0.00153477 0.0169987 -3.46468e-18)
(0.00356074 0.0220586 0)
(0.00317789 0.0153166 0)
(-5.452e-05 -0.000204532 0)
(-0.00020635 -0.00149539 0)
(-0.000421008 -0.00225 0)
(-0.000675412 -0.00265549 0)
(-0.000985893 -0.00288113 0)
(-0.00133843 -0.00297091 0)
(-0.00172224 -0.00294137 0)
(-0.00211951 -0.00279718 0)
(-0.00250991 -0.00253947 -1.92559e-18)
(-0.00287345 -0.00217057 1.90822e-18)
(-0.00319265 -0.0016964 0)
(-0.00345512 -0.00112693 0)
(-0.00365659 -0.000476676 0)
(-0.00380376 0.000239675 0)
(-0.00391375 0.00101252 0)
(-0.00400837 0.00184123 0)
(-0.00410399 0.00273981 0)
(-0.00419618 0.00375109 -3.1822e-18)
(-0.00424124 0.00495792 3.13086e-18)
(-0.00413357 0.00648906 0)
(-0.00371806 0.00851471 0)
(-0.0026473 0.0111623 0)
(0.000297646 0.0142503 0)
(0.00195955 0.0184093 0)
(0.00226637 0.0127101 0)
(-7.57304e-05 -0.000104061 0)
(-0.000263591 -0.00131035 0)
(-0.000523422 -0.0020158 0)
(-0.000802001 -0.00236023 0)
(-0.00111283 -0.00251496 0)
(-0.00144441 -0.00253547 0)
(-0.00178627 -0.00244612 0)
(-0.00212165 -0.00225821 0)
(-0.0024323 -0.00197904 0)
(-0.00270067 -0.00161656 0)
(-0.00291139 -0.00118139 1.85442e-18)
(-0.00305682 -0.00068783 -1.83498e-18)
(-0.0031413 -0.00015039 0)
(-0.00317979 0.000420663 0)
(-0.00319766 0.00102236 1.66553e-18)
(-0.00322491 0.0016606 -1.6434e-18)
(-0.00329058 0.00235408 -3.06525e-18)
(-0.00340334 0.00314666 3.01761e-18)
(-0.00353509 0.00411743 0)
(-0.00360101 0.00537265 0)
(-0.00346485 0.00704878 0)
(-0.00283556 0.00923574 2.7741e-18)
(-0.000691325 0.0117049 -5.57273e-18)
(0.000538692 0.0149273 2.79287e-18)
(0.00143993 0.0100942 0)
(-8.55175e-05 2.91203e-05 0)
(-0.000287628 -0.00107551 0)
(-0.000566713 -0.00174682 0)
(-0.000851173 -0.00204931 0)
(-0.00114966 -0.00215265 0)
(-0.00145202 -0.00212332 0)
(-0.00174803 -0.00199273 -9.48097e-19)
(-0.00202248 -0.00177778 9.41729e-19)
(-0.002259 -0.0014908 -1.86855e-18)
(-0.00244069 -0.00114469 1.85309e-18)
(-0.00255641 -0.000754463 -1.81532e-18)
(-0.00260462 -0.000336363 1.79583e-18)
(-0.00259537 9.63938e-05 0)
(-0.00254871 0.000537385 -1.66402e-18)
(-0.00249499 0.000989542 1.6438e-18)
(-0.00246814 0.00146528 0)
(-0.002503 0.00198632 0)
(-0.00262059 0.0025982 -2.74683e-18)
(-0.0028035 0.00337417 8.32606e-20)
(-0.00298941 0.00440137 2.5797e-18)
(-0.00306709 0.00577454 0)
(-0.00280584 0.00753179 -2.5392e-18)
(-0.00139923 0.00941637 2.49197e-18)
(-0.000642321 0.0117215 0)
(0.000727016 0.00758808 -2.09671e-18)
(-8.62843e-05 0.000173399 0)
(-0.000285534 -0.000824579 0)
(-0.000564118 -0.00146968 0)
(-0.000840843 -0.00174322 0)
(-0.00111784 -0.00181038 0)
(-0.00138562 -0.0017471 0)
(-0.0016345 -0.00159052 0)
(-0.0018509 -0.00136209 0)
(-0.0020191 -0.00107869 0)
(-0.00212578 -0.000757154 0)
(-0.00216477 -0.000415133 0)
(-0.002139 -6.82378e-05 0)
(-0.00206171 0.000271475 0)
(-0.00195652 0.000598995 0)
(-0.00185355 0.000920199 0)
(-0.00178747 0.00125333 0)
(-0.0017941 0.00162621 0)
(-0.00190103 0.00208756 0)
(-0.00209789 0.00270487 0)
(-0.00234386 0.00354854 0)
(-0.00255813 0.00466979 0)
(-0.00257236 0.00605142 0)
(-0.00181219 0.00741793 0)
(-0.00154397 0.00887842 0)
(0.000145667 0.00529041 0)
(-8.02922e-05 0.00031324 1.894e-19)
(-0.000264365 -0.000581219 2.35583e-19)
(-0.000528124 -0.00120277 -4.69647e-19)
(-0.000786957 -0.00145633 9.3573e-19)
(-0.00103572 -0.00149952 -9.31583e-19)
(-0.00126537 -0.00141518 0)
(-0.00146701 -0.00124472 9.21557e-19)
(-0.00162798 -0.00101321 9.11182e-19)
(-0.00173552 -0.000740759 -3.61747e-18)
(-0.00178141 -0.000446164 1.78792e-18)
(-0.00176411 -0.000147138 1.73418e-18)
(-0.0016904 0.000139682 -1.71662e-18)
(-0.00157489 0.000401306 -1.63047e-18)
(-0.00143969 0.000632801 3.17912e-18)
(-0.00131361 0.000841238 -5.4661e-20)
(-0.00122863 0.00104726 1.3591e-18)
(-0.00121681 0.0012848 -2.80351e-18)
(-0.00130293 0.00160698 -2.53599e-18)
(-0.00147977 0.00207839 4.91238e-18)
(-0.00172365 0.0027567 -2.37755e-18)
(-0.00198796 0.0036625 0)
(-0.00216934 0.00473151 2.33148e-18)
(-0.00193563 0.00567538 -4.71873e-18)
(-0.00215595 0.00642581 2.38645e-18)
(-0.000292342 0.00326358 1.99463e-18)
(-6.99131e-05 0.000437892 0)
(-0.000230899 -0.000360113 0)
(-0.000470252 -0.000958312 0)
(-0.00070312 -0.00119688 0)
(-0.000917786 -0.0012252 0)
(-0.00110562 -0.00113083 0)
(-0.00125785 -0.000958707 0)
(-0.00136423 -0.000736555 0)
(-0.00141747 -0.000485641 0)
(-0.00141507 -0.000224399 0)
(-0.00136113 2.89972e-05 0)
(-0.00126499 0.000257661 0)
(-0.00114221 0.000448715 0)
(-0.0010138 0.00059743 0)
(-0.000904918 0.000710925 0)
(-0.000840575 0.000811336 0)
(-0.000842244 0.000936059 0)
(-0.000921856 0.00114 0)
(-0.0010661 0.00148438 -2.39768e-18)
(-0.00125628 0.00201688 2.36458e-18)
(-0.00147061 0.00274026 0)
(-0.00166917 0.00355693 0)
(-0.00176984 0.00417601 0)
(-0.00239513 0.00440745 0)
(-0.000487201 0.00172042 0)
(-5.7131e-05 0.000546021 0)
(-0.000189532 -0.00016283 0)
(-0.000397397 -0.000739421 0)
(-0.000597353 -0.000967172 0)
(-0.000773974 -0.000991063 0)
(-0.000917552 -0.000902281 0)
(-0.00101948 -0.000749576 0)
(-0.00107345 -0.000562979 0)
(-0.00107713 -0.000363694 0)
(-0.00103377 -0.000170039 0)
(-0.000951257 1.61956e-06 -1.65843e-18)
(-0.000843352 0.000137896 1.64354e-18)
(-0.000729161 0.000231153 0)
(-0.000630826 0.000282913 0)
(-0.000570077 0.000306394 0)
(-0.000564218 0.000328802 0)
(-0.000623566 0.000390383 0)
(-0.000745368 0.000546617 0)
(-0.000902424 0.000848915 0)
(-0.00106284 0.00133152 0)
(-0.00119958 0.00198063 0)
(-0.00129975 0.00267547 -2.40495e-18)
(-0.00145548 0.00310482 2.37263e-18)
(-0.00194013 0.00276074 0)
(-0.000574195 0.000573136 0)
(-4.29137e-05 0.000629243 0)
(-0.000141773 9.38922e-06 0)
(-0.000312377 -0.000545223 0)
(-0.000475377 -0.000761674 0)
(-0.000616832 -0.00077659 0)
(-0.000725367 -0.000677168 0)
(-0.000792724 -0.000508119 0)
(-0.000813202 -0.000294321 0)
(-0.000785232 -5.29594e-05 0)
(-0.000711123 0.000200437 0)
(-0.000598192 0.000449523 0)
(-0.000459676 0.000676533 0)
(-0.000314361 0.000863365 0)
(-0.000185188 0.000993404 0)
(-9.68929e-05 0.0010538 0)
(-7.2794e-05 0.00103804 0)
(-0.000130769 0.000947904 0)
(-0.000279557 0.000800319 0)
(-0.00050768 0.000622069 0)
(-0.000795228 0.000443874 0)
(-0.00111842 0.000287622 0)
(-0.0014505 0.000139764 0)
(-0.00174533 -0.000131543 0)
(-0.00233728 -0.000932274 0)
(-0.00239889 -0.00062905 0)
(-2.88337e-05 0.000687158 0)
(-9.64496e-05 0.000150812 0)
(-0.000234523 -0.000391456 0)
(-0.000369372 -0.000618151 0)
(-0.00048797 -0.000657514 0)
(-0.000581271 -0.000596 0)
(-0.00064222 -0.00047794 0)
(-0.000666904 -0.000327891 0)
(-0.000653773 -0.000162308 0)
(-0.000604147 5.67334e-06 0)
(-0.000522716 0.000164207 0)
(-0.000417989 0.000302497 0)
(-0.000302145 0.000411448 0)
(-0.000190304 0.000484475 0)
(-9.93662e-05 0.000518545 0)
(-4.61263e-05 0.000515332 0)
(-4.31326e-05 0.00048234 0)
(-9.74582e-05 0.000432672 0)
(-0.0002063 0.000386273 0)
(-0.000356881 0.00036677 0)
(-0.000523831 0.000394193 0)
(-0.000669983 0.000472605 0)
(-0.000760244 0.000546161 0)
(-0.000914582 0.000387465 0)
(-0.00135507 -0.000215413 0)
(-1.67034e-05 0.00072353 0)
(-5.87522e-05 0.000262661 0)
(-0.000168739 -0.000263738 0)
(-0.000279839 -0.000496592 0)
(-0.000378586 -0.000553051 0)
(-0.000458174 -0.000516978 0)
(-0.000513051 -0.000430448 0)
(-0.000540249 -0.000316553 0)
(-0.000538747 -0.000190061 0)
(-0.000509435 -6.20145e-05 0)
(-0.00045539 5.85239e-05 0)
(-0.000381899 0.00016407 0)
(-0.000296281 0.000249051 0)
(-0.000207452 0.000310256 0)
(-0.000125182 0.000347394 0)
(-5.89679e-05 0.000363666 0)
(-1.61802e-05 0.000366151 0)
(-8.83907e-07 0.000364274 0)
(-1.22476e-05 0.000370002 0)
(-4.20217e-05 0.000395935 0)
(-7.28951e-05 0.000449402 0)
(-7.97499e-05 0.000521768 0)
(-4.48468e-05 0.00056792 0)
(-1.61576e-05 0.000487906 0)
(-0.000127983 0.000253921 0)
(-7.2953e-06 0.000739585 0)
(-2.95215e-05 0.000344005 0)
(-0.000115598 -0.00016423 0)
(-0.000206301 -0.000400696 0)
(-0.000287798 -0.000471153 0)
(-0.000354345 -0.000455506 0)
(-0.000401253 -0.000393045 0)
(-0.000426236 -0.00030483 0)
(-0.000428501 -0.000203705 0)
(-0.000408765 -9.876e-05 0)
(-0.000369177 2.8892e-06 0)
(-0.000313299 9.55426e-05 0)
(-0.000245918 0.000174936 0)
(-0.00017267 0.000238445 0)
(-9.95448e-05 0.000285377 0)
(-3.21554e-05 0.000317204 0)
(2.52501e-05 0.000337647 0)
(7.07186e-05 0.00035208 0)
(0.000105798 0.000367332 0)
(0.000136878 0.000389869 0)
(0.000175523 0.000421958 0)
(0.000235499 0.000455 0)
(0.000321883 0.000460791 0)
(0.000410803 0.000393303 0)
(0.000444279 0.000253083 0)
(-3.23772e-07 0.000740955 0)
(-7.60895e-06 0.000401563 0)
(-7.35875e-05 -8.63643e-05 0)
(-0.000146805 -0.000323421 0)
(-0.000213397 -0.000404597 0)
(-0.000268269 -0.000405434 0)
(-0.0003073 -0.000362767 0)
(-0.000328546 -0.00029594 0)
(-0.000331414 -0.000216384 0)
(-0.000316384 -0.000131815 0)
(-0.000284989 -4.80029e-05 0)
(-0.000239674 3.06029e-05 0)
(-0.000183627 0.000100757 0)
(-0.000120513 0.000160496 0)
(-5.41058e-05 0.000209229 0)
(1.22171e-05 0.000247819 0)
(7.60632e-05 0.000278462 0)
(0.000136672 0.000304321 0)
(0.000195562 0.00032891 0)
(0.000257003 0.000354689 0)
(0.000327485 0.000380532 0)
(0.000412901 0.000398452 0)
(0.000512183 0.000391698 0)
(0.000610246 0.000340856 0)
(0.000682532 0.000247408 0)
(4.62333e-06 0.000732133 0)
(8.34753e-06 0.000440323 0)
(-4.10326e-05 -2.63254e-05 0)
(-9.92414e-05 -0.000261702 0)
(-0.000152904 -0.000350871 0)
(-0.00019738 -0.000364906 0)
(-0.000228897 -0.000338211 0)
(-0.000245822 -0.000288624 0)
(-0.000247586 -0.000226394 0)
(-0.000234528 -0.000158215 0)
(-0.000207714 -8.8916e-05 0)
(-0.000168842 -2.21289e-05 0)
(-0.000120071 3.95189e-05 0)
(-6.38249e-05 9.43773e-05 0)
(-2.51689e-06 0.00014179 0)
(6.17761e-05 0.000182062 0)
(0.000127699 0.000216294 0)
(0.000194962 0.000246042 0)
(0.000264638 0.000272725 0)
(0.000339116 0.000296671 0)
(0.000421346 0.000315721 0)
(0.000512877 0.000324019 0)
(0.000610721 0.000312457 0)
(0.000705001 0.000273453 0)
(0.000781419 0.000210417 0)
(8.01488e-06 0.000716403 0)
(1.96333e-05 0.000464412 0)
(-1.61233e-05 1.90169e-05 0)
(-6.15804e-05 -0.000213061 0)
(-0.000104033 -0.000308102 0)
(-0.000139269 -0.000332738 0)
(-0.000163849 -0.000319103 0)
(-0.000176286 -0.000283648 0)
(-0.000176084 -0.000235664 0)
(-0.000163418 -0.000181054 0)
(-0.000139039 -0.000123982 0)
(-0.000104122 -6.75302e-05 0)
(-6.01453e-05 -1.39439e-05 0)
(-8.72823e-06 3.52919e-05 0)
(4.85538e-05 7.94081e-05 0)
(0.000110386 0.000118273 0)
(0.000175934 0.00015223 0)
(0.000245023 0.000181794 0)
(0.000318185 0.000207235 0)
(0.00039644 0.000227962 0)
(0.000480647 0.000241901 0)
(0.000570312 0.000245244 0)
(0.000662165 0.000233336 0)
(0.00074952 0.000203424 0)
(0.000823447 0.00015854 0)
(1.02743e-05 0.000696104 0)
(2.7425e-05 0.000477097 0)
(2.69965e-06 5.22805e-05 0)
(-3.19416e-05 -0.000175501 0)
(-6.47316e-05 -0.000274772 0)
(-9.18326e-05 -0.000307989 0)
(-0.000110074 -0.000305113 0)
(-0.000118153 -0.000281385 0)
(-0.000115565 -0.000245277 0)
(-0.000102402 -0.000202086 0)
(-7.91633e-05 -0.000155485 0)
(-4.66662e-05 -0.000108181 0)
(-5.92533e-06 -6.21719e-05 0)
(4.19615e-05 -1.88543e-05 0)
(9.59414e-05 2.09016e-05 0)
(0.00015514 5.66615e-05 0)
(0.000218977 8.82778e-05 0)
(0.00028723 0.00011567 0)
(0.000359985 0.000138528 0)
(0.000437399 0.000155999 0)
(0.000519232 0.000166445 0)
(0.000604205 0.000167553 0)
(0.000689396 0.000157084 0)
(0.000770128 0.000134342 0)
(0.0008407 0.000101801 0)
(1.17389e-05 0.000672923 0)
(3.26633e-05 0.000481045 0)
(1.6847e-05 7.5667e-05 0)
(-8.73028e-06 -0.000147297 0)
(-3.32264e-05 -0.000249618 0)
(-5.31907e-05 -0.000289815 0)
(-6.57532e-05 -0.000295887 0)
(-6.97107e-05 -0.000281971 0)
(-6.46118e-05 -0.000255861 0)
(-5.04524e-05 -0.000222369 0)
(-2.75726e-05 -0.000184806 0)
(3.46643e-06 -0.00014561 0)
(4.19639e-05 -0.000106613 0)
(8.71646e-05 -6.91604e-05 0)
(0.000138342 -3.41944e-05 0)
(0.000194876 -2.34423e-06 0)
(0.000256304 2.59531e-05 0)
(0.000322328 5.02962e-05 0)
(0.000392732 7.01433e-05 0)
(0.000467192 8.46545e-05 0)
(0.000544979 9.26515e-05 0)
(0.000624638 9.28021e-05 0)
(0.000703762 8.41302e-05 0)
(0.000779055 6.68007e-05 0)
(0.000846817 4.28678e-05 0)
(1.26408e-05 0.000648019 0)
(3.60885e-05 0.000478285 0)
(2.74106e-05 9.09769e-05 0)
(9.41715e-06 -0.000127004 0)
(-8.0098e-06 -0.000231507 0)
(-2.17804e-05 -0.000277455 0)
(-2.92816e-05 -0.000291026 0)
(-2.94612e-05 -0.000285397 0)
(-2.18726e-05 -0.000267775 0)
(-6.48071e-06 -0.000242588 0)
(1.65006e-05 -0.000212871 0)
(4.66828e-05 -0.000180868 0)
(8.35774e-05 -0.000148291 0)
(0.000126654 -0.000116448 0)
(0.000175394 -8.63233e-05 0)
(0.000229325 -5.8659e-05 0)
(0.000288045 -3.40465e-05 0)
(0.0003512 -1.30336e-05 0)
(0.000418405 3.77589e-06 0)
(0.000489112 1.56594e-05 0)
(0.00056244 2.18057e-05 0)
(0.000637029 2.14837e-05 0)
(0.000710976 1.43647e-05 0)
(0.000781952 9.4156e-07 0)
(0.000847547 -1.71085e-05 0)
(1.31599e-05 0.000622193 0)
(3.82128e-05 0.000470383 0)
(3.52802e-05 9.96968e-05 0)
(2.35832e-05 -0.000113345 0)
(1.21514e-05 -0.00021944 0)
(3.73214e-06 -0.000270179 0)
(6.65534e-07 -0.000290109 0)
(3.90803e-06 -0.000291535 0)
(1.38449e-05 -0.000281178 0)
(3.05517e-05 -0.00026315 0)
(5.38859e-05 -0.000240275 0)
(8.35793e-05 -0.00021465 0)
(0.000119286 -0.000187901 0)
(0.000160626 -0.000161302 0)
(0.00020721 -0.000135852 0)
(0.000258663 -0.00011235 0)
(0.000314621 -9.14551e-05 0)
(0.000374705 -7.37653e-05 0)
(0.000438462 -5.98658e-05 0)
(0.000505278 -5.03481e-05 0)
(0.00057429 -4.57614e-05 0)
(0.00064433 -4.64857e-05 0)
(0.000713935 -5.25349e-05 0)
(0.000781459 -6.33316e-05 0)
(0.00084533 -7.75317e-05 0)
(1.34165e-05 0.000595982 0)
(3.9443e-05 0.000458545 0)
(4.11044e-05 0.000103065 0)
(3.4639e-05 -0.000105236 0)
(2.82594e-05 -0.000212514 0)
(2.44168e-05 -0.000267318 0)
(2.52205e-05 -0.000292693 0)
(3.14913e-05 -0.000300186 0)
(4.35887e-05 -0.000296092 0)
(6.15825e-05 -0.000284272 0)
(8.53854e-05 -0.000267384 0)
(0.000114806 -0.000247416 0)
(0.000149595 -0.000225924 0)
(0.000189469 -0.00020415 0)
(0.000234129 -0.000183094 0)
(0.000283265 -0.000163568 0)
(0.000336548 -0.000146255 0)
(0.000393604 -0.00013175 0)
(0.000453976 -0.000120591 0)
(0.00051707 -0.000113257 0)
(0.000582119 -0.000110124 0)
(0.000648168 -0.000111378 0)
(0.000714112 -0.000116896 0)
(0.000778795 -0.000126127 0)
(0.000841194 -0.000138014 0)
(1.35024e-05 0.000569738 0)
(4.00458e-05 0.000443714 0)
(4.54011e-05 0.00010209 0)
(4.32499e-05 -0.00010174 0)
(4.1112e-05 -0.000209942 0)
(4.11674e-05 -0.000268249 0)
(4.52948e-05 -0.00029835 0)
(5.42239e-05 -0.000311104 0)
(6.82471e-05 -0.000312451 0)
(8.74406e-05 -0.000306044 0)
(0.000111739 -0.000294412 0)
(0.000141002 -0.000279458 0)
(0.000175043 -0.000262687 0)
(0.000213649 -0.00024531 0)
(0.00025658 -0.000228311 0)
(0.000303576 -0.000212502 0)
(0.000354343 -0.000198555 0)
(0.000408536 -0.000187045 0)
(0.000465729 -0.000178458 0)
(0.000525393 -0.000173187 0)
(0.000586882 -0.000171501 0)
(0.000649439 -0.000173486 0)
(0.000712244 -0.000178979 0)
(0.000774493 -0.000187504 0)
(0.00083553 -0.000198243 0)
(1.34749e-05 0.000543686 0)
(4.02318e-05 0.000426594 0)
(4.85332e-05 9.76013e-05 0)
(4.99439e-05 -0.000102074 0)
(5.13439e-05 -0.000211032 0)
(5.46866e-05 -0.000272415 0)
(6.16582e-05 -0.000306662 0)
(7.28717e-05 -0.000324026 0)
(8.85837e-05 -0.000330133 0)
(0.000108845 -0.00032847 0)
(0.000133608 -0.000321466 0)
(0.000162762 -0.000310961 0)
(0.000196164 -0.000298416 0)
(0.000233643 -0.000285016 0)
(0.000275008 -0.000271726 0)
(0.00032004 -0.000259342 0)
(0.00036848 -0.000248519 0)
(0.000420022 -0.000239802 0)
(0.000474294 -0.00023363 0)
(0.000530845 -0.000230339 0)
(0.00058915 -0.000230136 0)
(0.000648627 -0.000233065 0)
(0.000708676 -0.00023897 0)
(0.000768747 -0.000247468 0)
(0.000828433 -0.000257939 0)
(1.33779e-05 0.000517962 0)
(4.01288e-05 0.000407753 0)
(5.07921e-05 9.02826e-05 0)
(5.5118e-05 -0.000105559 0)
(5.94564e-05 -0.000215182 0)
(6.55581e-05 -0.000279312 0)
(7.49232e-05 -0.000317244 0)
(8.80851e-05 -0.000338681 0)
(0.000105236 -0.000348984 0)
(0.000126417 -0.000351502 0)
(0.000151579 -0.000348585 0)
(0.000180629 -0.000342028 0)
(0.000213451 -0.00033326 0)
(0.000249909 -0.000323442 0)
(0.000289844 -0.000313519 0)
(0.000333072 -0.000304268 0)
(0.000379374 -0.000296323 0)
(0.000428485 -0.000290198 0)
(0.000480092 -0.0002863 0)
(0.000533825 -0.000284926 0)
(0.000589271 -0.000286251 0)
(0.000645988 -0.000290311 0)
(0.000703549 -0.000296983 0)
(0.000761586 -0.000305976 0)
(0.000819863 -0.000316836 0)
(1.32349e-05 0.000492644 0)
(3.98391e-05 0.000387618 0)
(5.23726e-05 8.0683e-05 0)
(5.90864e-05 -0.000111633 0)
(6.58461e-05 -0.000221871 0)
(7.42374e-05 -0.000288494 0)
(8.5607e-05 -0.000329737 0)
(0.000100392 -0.000354808 0)
(0.00011875 -0.000368835 0)
(0.00014069 -0.000375054 0)
(0.000166163 -0.000375759 0)
(0.000195085 -0.000372711 0)
(0.000227357 -0.000367315 0)
(0.000262866 -0.000360713 0)
(0.00030148 -0.000353834 0)
(0.000343047 -0.000347435 0)
(0.000387382 -0.00034213 0)
(0.000434265 -0.000338408 0)
(0.000483438 -0.000336653 0)
(0.000534607 -0.000337137 0)
(0.000587453 -0.000340025 0)
(0.00064165 -0.000345363 0)
(0.000696898 -0.000353072 0)
(0.000752964 -0.00036295 0)
(0.000809726 -0.000374678 0)
(1.30652e-05 0.000467775 0)
(3.94167e-05 0.000366533 0)
(5.34347e-05 6.9268e-05 0)
(6.20809e-05 -0.000119819 0)
(7.08255e-05 -0.000230653 0)
(8.11041e-05 -0.000299568 0)
(9.41186e-05 -0.000343817 0)
(0.000110243 -0.000372157 0)
(0.000129578 -0.000389511 0)
(0.00015212 -0.000399024 0)
(0.000177806 -0.000402948 0)
(0.000206556 -0.000403022 0)
(0.000238284 -0.000400637 0)
(0.000272893 -0.000396919 0)
(0.000310273 -0.000392785 0)
(0.000350296 -0.000388974 0)
(0.000392812 -0.000386084 0)
(0.00043764 -0.000384587 0)
(0.000484575 -0.000384846 0)
(0.000533385 -0.000387127 0)
(0.000583831 -0.000391593 0)
(0.000635677 -0.00039831 0)
(0.000688719 -0.000407248 0)
(0.000742817 -0.000418283 0)
(0.000797928 -0.000431211 0)
(1.28761e-05 0.000443377 0)
(3.89094e-05 0.000344765 0)
(5.40824e-05 5.64121e-05 0)
(6.42916e-05 -0.000129716 0)
(7.4643e-05 -0.00024114 0)
(8.64531e-05 -0.000312189 0)
(0.000100806 -0.000359192 0)
(0.000118001 -0.000390495 0)
(0.00013811 -0.000410841 0)
(0.000161096 -0.000423299 0)
(0.000186892 -0.000430095 0)
(0.000215417 -0.000432952 0)
(0.000246591 -0.000433254 0)
(0.000280328 -0.00043212 0)
(0.000316537 -0.000430455 0)
(0.000355112 -0.000428989 0)
(0.00039593 -0.000428304 0)
(0.000438846 -0.000428859 0)
(0.000483698 -0.00043101 0)
(0.000530311 -0.000435015 0)
(0.000578504 -0.000441049 0)
(0.000628112 -0.000449201 0)
(0.000679 -0.000459486 0)
(0.000731094 -0.000471851 0)
(0.0007844 -0.000486189 0)
(1.26741e-05 0.000419459 0)
(3.8336e-05 0.000322528 0)
(5.44057e-05 4.24232e-05 0)
(6.58548e-05 -0.000140983 0)
(7.74948e-05 -0.000253002 0)
(9.05331e-05 -0.000326052 0)
(0.000105945 -0.000375601 0)
(0.00012398 -0.000409609 0)
(0.000144665 -0.000432661 0)
(0.000167951 -0.000447766 0)
(0.000193755 -0.000457129 0)
(0.000221995 -0.000462471 0)
(0.000252592 -0.000465173 0)
(0.000285472 -0.000466353 0)