/*--------------------------------*- C++ -*----------------------------------*\
  =========                 |
  \\      /  F ield         | OpenFOAM: The Open Source CFD Toolbox
   \\    /   O peration     | Website:  https://openfoam.org
    \\  /    A nd           | Version:  13
     \\/     M anipulation  |
\*---------------------------------------------------------------------------*/
FoamFile
{
    format      ascii;
    class       volScalarField;
    location    "17";
    object      p;
}
// * * * * * * * * * * * * * * * * * * * * * * * * * * * * * * * * * * * * * //

dimensions      [0 2 -2 0 0 0 0];

internalField   nonuniform List<scalar> 
6440
(
0.000576665
0.000576664
0.000576653
0.000576636
0.000576617
0.000576604
0.000576604
0.000576629
0.000576689
0.000576794
0.000576953
0.000577174
0.000577459
0.000577807
0.000578214
0.00057867
0.00057916
0.00057967
0.000580188
0.000580703
0.000581212
0.000581716
0.000582204
0.00058268
0.000583093
0.000576679
0.000576672
0.00057665
0.000576613
0.000576566
0.000576514
0.000576466
0.00057643
0.000576417
0.000576437
0.000576502
0.000576624
0.000576815
0.000577081
0.000577428
0.000577855
0.000578357
0.000578932
0.000579583
0.000580292
0.000581053
0.000581855
0.000582664
0.000583444
0.000584134
0.000576732
0.000576715
0.000576674
0.000576609
0.000576523
0.000576423
0.000576316
0.000576212
0.000576121
0.000576057
0.000576033
0.000576066
0.000576173
0.000576369
0.000576665
0.000577065
0.000577579
0.000578214
0.000578971
0.000579831
0.000580782
0.000581805
0.000582845
0.000583824
0.000584642
0.000576859
0.00057683
0.00057677
0.000576677
0.000576555
0.000576411
0.000576252
0.000576089
0.000575933
0.000575799
0.000575703
0.000575669
0.000575712
0.000575853
0.000576107
0.000576486
0.000577007
0.000577685
0.000578506
0.00057946
0.000580527
0.000581683
0.000582871
0.000583983
0.000584897
0.000577085
0.000577045
0.000576966
0.000576848
0.000576692
0.000576507
0.000576302
0.000576086
0.000575874
0.00057568
0.000575523
0.000575427
0.000575411
0.0005755
0.000575706
0.000576053
0.00057657
0.000577254
0.000578103
0.000579105
0.00058024
0.000581484
0.00058278
0.000584006
0.000585013
0.000577419
0.000577368
0.000577272
0.000577129
0.000576942
0.000576719
0.00057647
0.000576206
0.000575941
0.00057569
0.000575475
0.000575317
0.00057524
0.000575267
0.000575417
0.00057572
0.0005762
0.000576862
0.000577709
0.00057873
0.000579909
0.000581221
0.000582611
0.000583945
0.000585044
0.000577861
0.0005778
0.000577687
0.000577521
0.000577304
0.000577045
0.000576755
0.000576444
0.000576128
0.000575823
0.000575549
0.000575328
0.000575184
0.000575142
0.000575223
0.000575464
0.000575884
0.000576498
0.000577318
0.000578338
0.000579545
0.000580918
0.000582398
0.000583839
0.000585033
0.000578408
0.000578336
0.000578209
0.00057802
0.000577775
0.000577482
0.000577152
0.000576797
0.000576432
0.000576072
0.000575738
0.000575453
0.000575239
0.00057512
0.000575122
0.000575282
0.000575623
0.000576169
0.000576938
0.00057794
0.000579166
0.000580596
0.000582166
0.000583717
0.000585008
0.000579053
0.000578973
0.000578831
0.000578622
0.000578352
0.000578027
0.000577659
0.000577261
0.000576847
0.000576434
0.00057604
0.000575688
0.000575399
0.0005752
0.000575117
0.000575183
0.000575433
0.000575893
0.000576595
0.000577562
0.000578792
0.00058027
0.00058193
0.000583591
0.00058498
0.000579789
0.000579702
0.000579548
0.000579322
0.000579027
0.000578673
0.000578272
0.000577833
0.000577373
0.000576908
0.000576455
0.000576035
0.00057567
0.000575386
0.000575217
0.000575189
0.000575337
0.000575701
0.00057633
0.000577242
0.000578449
0.000579949
0.000581687
0.000583449
0.000584933
0.000580606
0.000580515
0.000580352
0.000580112
0.000579798
0.000579419
0.000578987
0.000578513
0.000578009
0.000577494
0.000576983
0.000576496
0.000576057
0.000575686
0.000575428
0.000575306
0.000575358
0.000575628
0.000576151
0.000576967
0.000578121
0.000579623
0.000581413
0.000583265
0.000584836
0.000581495
0.000581401
0.000581233
0.000580984
0.000580658
0.000580261
0.000579805
0.0005793
0.000578758
0.000578199
0.000577639
0.000577086
0.000576574
0.000576127
0.000575769
0.000575548
0.000575498
0.000575652
0.000576057
0.000576764
0.000577824
0.000579273
0.000581085
0.000583009
0.000584649
0.000582441
0.000582348
0.000582181
0.00058193
0.000581598
0.000581193
0.000580722
0.000580195
0.000579625
0.000579029
0.000578424
0.000577819
0.000577234
0.000576704
0.000576259
0.00057593
0.000575759
0.000575782
0.000576048
0.000576616
0.000577548
0.000578894
0.000580648
0.000582617
0.000584311
0.000583433
0.000583344
0.000583181
0.000582935
0.000582608
0.000582205
0.000581732
0.000581198
0.000580613
0.000579991
0.000579348
0.000578702
0.000578058
0.000577437
0.000576888
0.000576442
0.000576138
0.000576024
0.000576133
0.000576518
0.000577252
0.000578419
0.000580068
0.000582023
0.000583761
0.000584452
0.000584372
0.00058422
0.000583986
0.000583675
0.000583287
0.000582827
0.000582302
0.000581719
0.000581089
0.000580424
0.000579736
0.000579044
0.000578359
0.00057769
0.000577105
0.00057664
0.000576345
0.000576235
0.000576373
0.00057685
0.000577789
0.000579291
0.000581171
0.000582936
0.000585483
0.000585414
0.000585279
0.000585068
0.000584782
0.000584423
0.000583993
0.000583496
0.000582938
0.000582323
0.000581659
0.000580955
0.000580221
0.000579472
0.000578724
0.000577975
0.000577315
0.000576786
0.000576404
0.000576238
0.000576392
0.000577014
0.000578264
0.00058
0.000581726
0.000586508
0.000586453
0.000586342
0.000586161
0.000585912
0.000585595
0.000585213
0.000584766
0.000584256
0.000583686
0.000583056
0.000582369
0.00058163
0.000580841
0.000580016
0.000579156
0.000578287
0.000577489
0.000576783
0.000576235
0.000575958
0.000576121
0.000576944
0.00057836
0.000579951
0.000587508
0.000587472
0.000587389
0.000587245
0.000587043
0.000586783
0.000586465
0.000586089
0.000585654
0.000585158
0.0005846
0.000583975
0.00058328
0.000582509
0.00058166
0.000580739
0.000579699
0.000578643
0.000577583
0.000576572
0.000575721
0.000575214
0.000575329
0.000576073
0.000577343
0.000588469
0.000588452
0.000588399
0.000588299
0.000588151
0.000587956
0.000587715
0.000587425
0.000587085
0.00058669
0.000586235
0.000585712
0.000585111
0.000584419
0.000583621
0.000582697
0.000581616
0.000580383
0.000579025
0.000577542
0.000576009
0.000574581
0.000573575
0.000573063
0.000573536
0.000589374
0.000589375
0.000589351
0.00058929
0.000589194
0.000589063
0.000588897
0.000588693
0.000588449
0.000588159
0.000587816
0.00058741
0.000586929
0.000586355
0.000585669
0.000584848
0.000583878
0.000582578
0.000581026
0.000579189
0.000577021
0.000574491
0.000571703
0.000568748
0.00056639
0.000590219
0.000590233
0.000590228
0.000590192
0.000590126
0.00059003
0.000589903
0.000589743
0.000589546
0.000589306
0.000589016
0.000588664
0.000588237
0.000587715
0.000587076
0.000586289
0.00058531
0.000584062
0.000582476
0.00058053
0.000578085
0.000574943
0.00057066
0.000564009
0.000552006
0.00059102
0.000591038
0.000591035
0.000591002
0.000590939
0.000590845
0.000590719
0.00059056
0.000590364
0.000590124
0.000589834
0.000589482
0.000589054
0.000588532
0.000587892
0.000587104
0.000586122
0.000584892
0.000583336
0.000581374
0.000578878
0.000575609
0.000571128
0.000564632
0.00055522
0.000591782
0.000591802
0.000591801
0.000591767
0.000591701
0.000591604
0.000591472
0.000591306
0.0005911
0.000590851
0.000590549
0.000590185
0.000589744
0.00058921
0.000588559
0.00058776
0.000586777
0.000585558
0.000584039
0.000582145
0.000579758
0.000576706
0.000572739
0.000567568
0.000561169
0.000592508
0.00059253
0.00059253
0.000592497
0.00059243
0.00059233
0.000592196
0.000592025
0.000591815
0.000591561
0.000591255
0.000590888
0.000590447
0.000589916
0.000589274
0.000588495
0.000587546
0.000586387
0.000584969
0.000583233
0.000581103
0.000578487
0.000575294
0.000571511
0.000567378
0.000593198
0.000593222
0.000593225
0.000593194
0.000593129
0.00059303
0.000592897
0.000592729
0.000592522
0.000592272
0.000591973
0.000591617
0.000591192
0.000590685
0.000590078
0.000589349
0.000588475
0.000587425
0.000586166
0.000584663
0.000582878
0.000580783
0.000578383
0.000575769
0.000573193
0.000593854
0.000593881
0.000593887
0.000593859
0.000593798
0.000593704
0.000593578
0.000593417
0.000593219
0.000592982
0.0005927
0.000592367
0.000591972
0.000591506
0.000590954
0.000590301
0.000589529
0.00058862
0.000587556
0.000586322
0.00058491
0.000583331
0.000581634
0.000579934
0.000578437
0.000594477
0.000594507
0.000594518
0.000594494
0.000594439
0.000594353
0.000594236
0.000594087
0.000593905
0.000593688
0.000593431
0.000593129
0.000592776
0.000592363
0.000591881
0.00059132
0.000590669
0.000589918
0.000589063
0.000588103
0.000587051
0.000585938
0.000584827
0.000583827
0.000583097
0.000595069
0.000595102
0.000595116
0.000595099
0.000595052
0.000594976
0.000594872
0.000594739
0.000594577
0.000594384
0.000594159
0.000593896
0.000593593
0.000593242
0.00059284
0.000592379
0.000591856
0.000591269
0.000590621
0.000589923
0.000589197
0.000588484
0.000587846
0.000587377
0.000587198
0.000595629
0.000595665
0.000595684
0.000595674
0.000595636
0.000595572
0.000595483
0.000595369
0.000595231
0.000595068
0.000594878
0.00059466
0.00059441
0.000594128
0.000593809
0.000593452
0.000593057
0.000592629
0.000592177
0.000591717
0.000591275
0.000590894
0.000590632
0.000590564
0.000590784
0.000596159
0.000596197
0.000596221
0.000596218
0.000596191
0.00059614
0.000596069
0.000595976
0.000595864
0.000595732
0.000595581
0.00059541
0.000595218
0.000595005
0.00059477
0.000594516
0.000594245
0.000593966
0.000593691
0.00059344
0.00059324
0.00059313
0.000593161
0.000593394
0.000593901
0.000596657
0.000596697
0.000596727
0.000596732
0.000596715
0.00059668
0.000596627
0.000596557
0.000596472
0.000596374
0.000596263
0.00059614
0.000596005
0.000595861
0.000595708
0.000595551
0.000595396
0.000595253
0.000595135
0.000595062
0.000595063
0.00059517
0.000595428
0.000595885
0.000596597
0.000597123
0.000597166
0.000597201
0.000597214
0.000597209
0.000597189
0.000597155
0.000597108
0.000597052
0.000596988
0.000596917
0.000596841
0.000596763
0.000596685
0.00059661
0.000596543
0.000596493
0.000596469
0.000596487
0.000596565
0.000596729
0.000597009
0.000597439
0.000598061
0.000598915
0.000597558
0.000597603
0.000597643
0.000597664
0.000597671
0.000597666
0.000597651
0.000597629
0.000597601
0.000597569
0.000597538
0.000597508
0.000597484
0.000597467
0.000597464
0.000597479
0.000597521
0.000597602
0.000597735
0.000597938
0.000598233
0.000598646
0.000599206
0.000599946
0.000600896
0.000597961
0.000598008
0.000598052
0.000598082
0.0005981
0.000598111
0.000598115
0.000598115
0.000598114
0.000598115
0.000598121
0.000598135
0.00059816
0.000598201
0.000598262
0.00059835
0.000598473
0.000598643
0.000598871
0.000599176
0.000599574
0.000600089
0.000600745
0.000601565
0.000602576
0.000598331
0.00059838
0.000598428
0.000598466
0.000598496
0.000598521
0.000598543
0.000598566
0.000598591
0.000598623
0.000598664
0.000598718
0.000598788
0.00059888
0.000598998
0.000599149
0.000599342
0.000599586
0.000599893
0.000600278
0.000600757
0.000601348
0.00060207
0.000602944
0.000603988
0.000598668
0.000598719
0.000598772
0.000598816
0.000598857
0.000598896
0.000598935
0.000598979
0.000599029
0.000599089
0.000599162
0.000599252
0.000599364
0.000599501
0.000599669
0.000599874
0.000600125
0.00060043
0.0006008
0.000601248
0.000601787
0.000602433
0.0006032
0.000604104
0.000605161
0.000598973
0.000599024
0.000599081
0.000599133
0.000599183
0.000599235
0.000599291
0.000599354
0.000599426
0.000599512
0.000599614
0.000599737
0.000599885
0.000600061
0.000600272
0.000600523
0.000600821
0.000601176
0.000601595
0.000602091
0.000602673
0.000603355
0.00060415
0.000605068
0.000606122
0.000599244
0.000599297
0.000599357
0.000599415
0.000599474
0.000599538
0.000599609
0.000599689
0.000599782
0.000599891
0.00060002
0.000600171
0.00060035
0.00060056
0.000600806
0.000601095
0.000601432
0.000601825
0.000602281
0.000602811
0.000603424
0.000604129
0.000604936
0.000605855
0.000606894
0.000599483
0.000599536
0.000599599
0.000599663
0.00059973
0.000599805
0.000599889
0.000599985
0.000600097
0.000600226
0.000600377
0.000600553
0.000600758
0.000600996
0.000601272
0.000601591
0.000601958
0.00060238
0.000602864
0.000603418
0.000604049
0.000604765
0.000605574
0.000606483
0.000607498
0.000599689
0.000599742
0.000599808
0.000599876
0.000599951
0.000600036
0.000600132
0.000600242
0.000600369
0.000600516
0.000600687
0.000600884
0.000601111
0.000601372
0.000601671
0.000602014
0.000602404
0.000602847
0.000603349
0.000603917
0.000604557
0.000605275
0.000606078
0.000606969
0.000607954
0.000599863
0.000599916
0.000599983
0.000600056
0.000600138
0.000600231
0.000600337
0.000600459
0.0006006
0.000600763
0.000600949
0.000601164
0.000601409
0.000601688
0.000602006
0.000602366
0.000602772
0.000603229
0.000603743
0.000604318
0.000604959
0.000605672
0.00060646
0.000607329
0.000608279
0.000600005
0.000600058
0.000600127
0.000600203
0.00060029
0.00060039
0.000600506
0.000600638
0.000600791
0.000600966
0.000601166
0.000601394
0.000601654
0.000601947
0.000602278
0.00060265
0.000603067
0.000603533
0.000604052
0.000604627
0.000605264
0.000605965
0.000606735
0.000607576
0.000608489
0.000600116
0.000600169
0.000600239
0.000600318
0.00060041
0.000600516
0.000600638
0.00060078
0.000600942
0.000601127
0.000601338
0.000601577
0.000601847
0.000602151
0.000602492
0.000602872
0.000603294
0.000603763
0.000604282
0.000604853
0.00060548
0.000606166
0.000606913
0.000607723
0.000608597
0.000600197
0.00060025
0.00060032
0.000600401
0.000600497
0.000600608
0.000600737
0.000600885
0.000601055
0.000601248
0.000601467
0.000601715
0.000601992
0.000602303
0.000602649
0.000603033
0.000603458
0.000603926
0.00060444
0.000605002
0.000605616
0.000606283
0.000607004
0.000607782
0.000608615
0.000600249
0.000600301
0.000600372
0.000600455
0.000600553
0.000600668
0.000600801
0.000600955
0.000601131
0.00060133
0.000601555
0.000601808
0.000602091
0.000602406
0.000602754
0.000603139
0.000603562
0.000604026
0.000604532
0.000605083
0.00060568
0.000606325
0.000607019
0.000607763
0.000608555
0.000600273
0.000600324
0.000600395
0.000600479
0.000600579
0.000600697
0.000600834
0.000600992
0.000601172
0.000601376
0.000601605
0.000601861
0.000602147
0.000602463
0.000602811
0.000603194
0.000603612
0.000604068
0.000604564
0.0006051
0.000605679
0.000606301
0.000606966
0.000607675
0.000608428
0.00060027
0.000600321
0.000600391
0.000600475
0.000600577
0.000600697
0.000600836
0.000600997
0.00060118
0.000601386
0.000601618
0.000601876
0.000602161
0.000602477
0.000602822
0.000603201
0.000603612
0.000604059
0.000604542
0.000605062
0.000605621
0.000606218
0.000606854
0.000607528
0.000608241
0.000600242
0.000600291
0.000600361
0.000600445
0.000600547
0.000600669
0.00060081
0.000600972
0.000601157
0.000601364
0.000601596
0.000601854
0.000602139
0.000602451
0.000602792
0.000603164
0.000603567
0.000604003
0.000604471
0.000604974
0.000605511
0.000606083
0.000606689
0.000607329
0.000608003
0.00060019
0.000600238
0.000600306
0.00060039
0.000600493
0.000600614
0.000600756
0.000600919
0.000601104
0.000601312
0.000601543
0.000601799
0.000602081
0.000602389
0.000602724
0.000603088
0.000603481
0.000603904
0.000604357
0.000604841
0.000605356
0.000605902
0.000606478
0.000607085
0.000607721
0.000600115
0.000600161
0.000600228
0.000600312
0.000600414
0.000600535
0.000600677
0.00060084
0.000601024
0.000601231
0.00060146
0.000601713
0.000601991
0.000602294
0.000602622
0.000602976
0.000603358
0.000603767
0.000604203
0.000604668
0.000605161
0.000605681
0.000606228
0.000606802
0.000607401
0.000600019
0.000600064
0.000600129
0.000600211
0.000600313
0.000600433
0.000600575
0.000600736
0.000600919
0.000601124
0.00060135
0.0006016
0.000601872
0.000602168
0.000602488
0.000602832
0.000603202
0.000603596
0.000604016
0.000604461
0.000604931
0.000605425
0.000605944
0.000606486
0.00060705
0.000599903
0.000599946
0.00060001
0.000600091
0.000600191
0.00060031
0.00060045
0.00060061
0.000600791
0.000600993
0.000601216
0.00060146
0.000601726
0.000602015
0.000602326
0.000602659
0.000603016
0.000603395
0.000603797
0.000604223
0.00060467
0.00060514
0.000605631
0.000606142
0.000606672
0.000599768
0.00059981
0.000599872
0.000599951
0.00060005
0.000600168
0.000600306
0.000600463
0.000600641
0.00060084
0.000601058
0.000601297
0.000601557
0.000601837
0.000602138
0.000602461
0.000602804
0.000603168
0.000603553
0.000603958
0.000604384
0.000604829
0.000605292
0.000605774
0.000606271
0.000599617
0.000599657
0.000599717
0.000599794
0.000599891
0.000600007
0.000600143
0.000600298
0.000600473
0.000600667
0.00060088
0.000601114
0.000601366
0.000601638
0.000601929
0.000602239
0.000602569
0.000602918
0.000603285
0.000603671
0.000604075
0.000604496
0.000604933
0.000605386
0.000605853
0.00059945
0.000599488
0.000599546
0.000599622
0.000599717
0.00059983
0.000599963
0.000600115
0.000600287
0.000600476
0.000600685
0.000600911
0.000601156
0.000601419
0.0006017
0.000601998
0.000602314
0.000602647
0.000602998
0.000603365
0.000603747
0.000604145
0.000604557
0.000604983
0.00060542
0.000599269
0.000599305
0.000599361
0.000599435
0.000599528
0.000599639
0.000599769
0.000599918
0.000600085
0.00060027
0.000600472
0.000600692
0.000600929
0.000601183
0.000601453
0.00060174
0.000602042
0.00060236
0.000602694
0.000603042
0.000603404
0.00060378
0.000604168
0.000604567
0.000604977
0.000599075
0.00059911
0.000599164
0.000599236
0.000599326
0.000599434
0.000599562
0.000599707
0.000599869
0.000600049
0.000600246
0.000600459
0.000600688
0.000600932
0.000601192
0.000601467
0.000601756
0.000602059
0.000602376
0.000602706
0.000603048
0.000603402
0.000603767
0.000604142
0.000604525
0.00059887
0.000598903
0.000598955
0.000599025
0.000599112
0.000599218
0.000599342
0.000599484
0.000599642
0.000599817
0.000600007
0.000600213
0.000600434
0.000600669
0.000600918
0.000601181
0.000601457
0.000601746
0.000602047
0.000602359
0.000602682
0.000603016
0.000603359
0.000603709
0.000604067
0.000598655
0.000598686
0.000598736
0.000598804
0.000598889
0.000598992
0.000599113
0.000599251
0.000599404
0.000599574
0.000599758
0.000599957
0.00060017
0.000600396
0.000600635
0.000600886
0.000601149
0.000601423
0.000601709
0.000602004
0.000602309
0.000602623
0.000602944
0.000603273
0.000603607
0.000598431
0.000598461
0.000598509
0.000598575
0.000598658
0.000598758
0.000598875
0.000599009
0.000599158
0.000599322
0.000599501
0.000599692
0.000599897
0.000600114
0.000600342
0.000600582
0.000600833
0.000601093
0.000601364
0.000601643
0.00060193
0.000602225
0.000602527
0.000602834
0.000603145
0.000598199
0.000598228
0.000598275
0.000598338
0.000598419
0.000598516
0.00059863
0.00059876
0.000598904
0.000599063
0.000599235
0.00059942
0.000599617
0.000599825
0.000600043
0.000600272
0.000600511
0.000600758
0.000601014
0.000601277
0.000601548
0.000601825
0.000602107
0.000602394
0.000602685
0.000597962
0.00059799
0.000598035
0.000598096
0.000598174
0.000598269
0.000598379
0.000598505
0.000598645
0.000598799
0.000598965
0.000599143
0.000599332
0.000599531
0.00059974
0.000599958
0.000600184
0.000600419
0.000600661
0.00060091
0.000601164
0.000601424
0.000601689
0.000601957
0.000602227
0.00059772
0.000597746
0.000597789
0.000597849
0.000597925
0.000598017
0.000598124
0.000598246
0.000598382
0.00059853
0.00059869
0.000598861
0.000599043
0.000599233
0.000599433
0.000599641
0.000599856
0.000600078
0.000600307
0.000600541
0.000600781
0.000601025
0.000601272
0.000601522
0.000601774
0.000597473
0.000597499
0.000597541
0.000597598
0.000597672
0.000597761
0.000597866
0.000597984
0.000598115
0.000598258
0.000598413
0.000598577
0.000598751
0.000598934
0.000599124
0.000599322
0.000599526
0.000599737
0.000599953
0.000600174
0.000600399
0.000600628
0.000600859
0.000601092
0.000601326
0.000597224
0.000597249
0.00059729
0.000597346
0.000597417
0.000597504
0.000597605
0.00059772
0.000597847
0.000597985
0.000598134
0.000598292
0.000598459
0.000598634
0.000598815
0.000599004
0.000599198
0.000599397
0.000599601
0.000599809
0.00060002
0.000600234
0.00060045
0.000600667
0.000600885
0.000596974
0.000596998
0.000597037
0.000597092
0.000597162
0.000597246
0.000597344
0.000597455
0.000597578
0.000597712
0.000597855
0.000598007
0.000598167
0.000598334
0.000598508
0.000598687
0.000598871
0.000599059
0.000599252
0.000599448
0.000599646
0.000599846
0.000600048
0.00060025
0.000600451
0.000596723
0.000596746
0.000596785
0.000596838
0.000596906
0.000596988
0.000597084
0.000597191
0.00059731
0.00059744
0.000597578
0.000597724
0.000597877
0.000598037
0.000598202
0.000598372
0.000598547
0.000598725
0.000598907
0.000599091
0.000599277
0.000599464
0.000599652
0.00059984
0.000600027
0.000596472
0.000596495
0.000596533
0.000596585
0.000596652
0.000596732
0.000596824
0.000596929
0.000597044
0.000597169
0.000597302
0.000597443
0.00059759
0.000597743
0.0005979
0.000598062
0.000598227
0.000598396
0.000598567
0.00059874
0.000598915
0.00059909
0.000599265
0.00059944
0.000599613
0.000596222
0.000596245
0.000596283
0.000596334
0.000596399
0.000596478
0.000596568
0.00059667
0.000596781
0.000596902
0.000597031
0.000597166
0.000597306
0.000597452
0.000597603
0.000597756
0.000597913
0.000598073
0.000598234
0.000598397
0.00059856
0.000598724
0.000598887
0.000599049
0.000599209
0.000595975
0.000595998
0.000596036
0.000596086
0.00059615
0.000596227
0.000596315
0.000596414
0.000596523
0.000596639
0.000596763
0.000596893
0.000597028
0.000597167
0.000597311
0.000597457
0.000597605
0.000597756
0.000597908
0.000598061
0.000598214
0.000598367
0.000598519
0.000598669
0.000598817
0.000595731
0.000595755
0.000595792
0.000595843
0.000595906
0.000595981
0.000596067
0.000596163
0.000596269
0.000596382
0.000596501
0.000596626
0.000596756
0.000596889
0.000597025
0.000597164
0.000597305
0.000597447
0.00059759
0.000597734
0.000597877
0.00059802
0.000598161
0.0005983
0.000598437
0.000595491
0.000595516
0.000595554
0.000595604
0.000595666
0.00059574
0.000595825
0.000595919
0.000596021
0.00059613
0.000596246
0.000596366
0.00059649
0.000596617
0.000596747
0.000596879
0.000597012
0.000597147
0.000597281
0.000597416
0.00059755
0.000597683
0.000597814
0.000597943
0.00059807
0.000595256
0.000595282
0.000595321
0.000595371
0.000595433
0.000595506
0.000595589
0.000595681
0.00059578
0.000595886
0.000595998
0.000596113
0.000596232
0.000596354
0.000596477
0.000596603
0.000596729
0.000596855
0.000596982
0.000597108
0.000597233
0.000597357
0.000597479
0.000597598
0.000597715
0.000595027
0.000595054
0.000595094
0.000595145
0.000595207
0.000595279
0.000595361
0.000595451
0.000595548
0.00059565
0.000595758
0.000595869
0.000595983
0.000596099
0.000596217
0.000596335
0.000596455
0.000596574
0.000596693
0.000596811
0.000596928
0.000597043
0.000597156
0.000597267
0.000597374
0.000594804
0.000594833
0.000594875
0.000594927
0.000594989
0.000595061
0.000595141
0.00059523
0.000595324
0.000595424
0.000595527
0.000595634
0.000595743
0.000595854
0.000595966
0.000596078
0.000596191
0.000596303
0.000596415
0.000596525
0.000596634
0.000596741
0.000596846
0.000596948
0.000597047
0.000594589
0.00059462
0.000594664
0.000594718
0.00059478
0.000594852
0.000594932
0.000595018
0.00059511
0.000595207
0.000595307
0.00059541
0.000595514
0.00059562
0.000595726
0.000595832
0.000595938
0.000596043
0.000596148
0.000596251
0.000596352
0.000596452
0.000596549
0.000596643
0.000596733
0.000594382
0.000594417
0.000594463
0.000594518
0.000594582
0.000594654
0.000594733
0.000594818
0.000594908
0.000595001
0.000595098
0.000595196
0.000595296
0.000595396
0.000595497
0.000595597
0.000595696
0.000595795
0.000595893
0.000595989
0.000596083
0.000596175
0.000596265
0.000596351
0.000596434
0.000594184
0.000594223
0.000594273
0.00059433
0.000594395
0.000594467
0.000594546
0.000594629
0.000594717
0.000594808
0.000594901
0.000594995
0.00059509
0.000595185
0.000595279
0.000595373
0.000595467
0.000595559
0.00059565
0.000595739
0.000595826
0.000595911
0.000595994
0.000596073
0.000596149
0.000593997
0.00059404
0.000594094
0.000594154
0.000594221
0.000594294
0.000594372
0.000594454
0.00059454
0.000594627
0.000594716
0.000594806
0.000594896
0.000594985
0.000595074
0.000595162
0.000595249
0.000595335
0.00059542
0.000595502
0.000595583
0.000595661
0.000595736
0.000595809
0.000595879
0.00059382
0.000593869
0.000593928
0.000593992
0.000594061
0.000594134
0.000594212
0.000594293
0.000594376
0.000594461
0.000594546
0.000594631
0.000594715
0.000594799
0.000594882
0.000594964
0.000595045
0.000595124
0.000595202
0.000595278
0.000595352
0.000595423
0.000595493
0.000595559
0.000595622
0.000593657
0.000593711
0.000593777
0.000593844
0.000593916
0.000593991
0.000594068
0.000594148
0.000594228
0.000594309
0.00059439
0.00059447
0.000594549
0.000594627
0.000594703
0.000594779
0.000594853
0.000594926
0.000594997
0.000595066
0.000595134
0.000595199
0.000595262
0.000595323
0.00059538
0.000593506
0.000593569
0.000593641
0.000593714
0.000593788
0.000593864
0.000593942
0.000594019
0.000594097
0.000594173
0.000594249
0.000594323
0.000594396
0.000594468
0.000594538
0.000594607
0.000594674
0.00059474
0.000594804
0.000594867
0.000594928
0.000594988
0.000595045
0.0005951
0.000595152
0.000593372
0.000593443
0.000593524
0.000593602
0.00059368
0.000593757
0.000593834
0.000593909
0.000593983
0.000594055
0.000594125
0.000594193
0.000594259
0.000594324
0.000594387
0.000594448
0.000594508
0.000594567
0.000594625
0.000594681
0.000594736
0.000594789
0.000594841
0.00059489
0.000594937
0.000593253
0.000593336
0.000593427
0.000593511
0.000593593
0.000593672
0.000593747
0.000593819
0.000593888
0.000593954
0.000594018
0.000594079
0.000594137
0.000594194
0.000594249
0.000594303
0.000594356
0.000594407
0.000594458
0.000594507
0.000594556
0.000594603
0.000594649
0.000594693
0.000594736
0.000593155
0.00059325
0.000593353
0.000593445
0.00059353
0.00059361
0.000593683
0.000593751
0.000593814
0.000593873
0.000593929
0.000593981
0.000594031
0.000594079
0.000594126
0.000594171
0.000594216
0.00059426
0.000594303
0.000594346
0.000594388
0.000594429
0.000594469
0.000594509
0.000594547
0.000593077
0.000593189
0.000593305
0.000593406
0.000593495
0.000593575
0.000593645
0.000593707
0.000593763
0.000593813
0.000593858
0.000593901
0.000593941
0.000593979
0.000594016
0.000594052
0.000594088
0.000594124
0.00059416
0.000594195
0.000594231
0.000594266
0.000594302
0.000594336
0.00059437
0.000593025
0.000593156
0.000593289
0.0005934
0.000593492
0.00059357
0.000593635
0.000593689
0.000593734
0.000593773
0.000593807
0.000593837
0.000593866
0.000593893
0.000593919
0.000593945
0.000593972
0.000593999
0.000594027
0.000594056
0.000594085
0.000594115
0.000594145
0.000594175
0.000594205
0.000593003
0.000593158
0.000593311
0.000593431
0.000593525
0.000593599
0.000593656
0.000593698
0.000593731
0.000593755
0.000593775
0.000593791
0.000593806
0.00059382
0.000593835
0.00059385
0.000593867
0.000593886
0.000593905
0.000593927
0.000593949
0.000593973
0.000593998
0.000594024
0.000594051
0.000593017
0.000593201
0.000593377
0.000593507
0.000593601
0.000593668
0.000593711
0.000593738
0.000593753
0.00059376
0.000593762
0.000593762
0.000593761
0.000593761
0.000593762
0.000593766
0.000593772
0.000593781
0.000593793
0.000593807
0.000593823
0.000593841
0.000593861
0.000593883
0.000593906
0.000593077
0.000593296
0.0005935
0.000593638
0.000593727
0.00059378
0.000593805
0.00059381
0.000593802
0.000593786
0.000593767
0.000593747
0.000593728
0.000593712
0.0005937
0.000593691
0.000593686
0.000593685
0.000593688
0.000593695
0.000593705
0.000593717
0.000593733
0.000593751
0.000593771
0.000593195
0.000593459
0.000593693
0.000593836
0.000593913
0.000593943
0.00059394
0.000593915
0.000593877
0.000593834
0.000593789
0.000593746
0.000593707
0.000593673
0.000593646
0.000593623
0.000593607
0.000593597
0.000593591
0.00059359
0.000593594
0.000593601
0.000593612
0.000593627
0.000593644
0.000593393
0.000593713
0.000593978
0.000594118
0.000594169
0.000594163
0.000594119
0.000594053
0.000593977
0.000593899
0.000593824
0.000593755
0.000593694
0.000593641
0.000593597
0.000593562
0.000593534
0.000593513
0.000593499
0.000593492
0.000593489
0.000593492
0.000593499
0.00059351
0.000593524
0.000593707
0.00059409
0.000594385
0.000594503
0.000594507
0.000594444
0.000594343
0.000594223
0.000594099
0.000593979
0.000593869
0.000593771
0.000593686
0.000593613
0.000593552
0.000593503
0.000593464
0.000593434
0.000593412
0.000593398
0.00059339
0.000593388
0.000593391
0.000593399
0.000593412
0.000594199
0.000594647
0.000594954
0.000595017
0.00059494
0.000594791
0.000594609
0.000594419
0.000594236
0.000594067
0.000593918
0.000593788
0.000593677
0.000593584
0.000593508
0.000593445
0.000593395
0.000593357
0.000593328
0.000593308
0.000593295
0.000593289
0.000593289
0.000593295
0.000593305
0.000594985
0.000595471
0.000595743
0.00059569
0.000595476
0.000595199
0.000594909
0.00059463
0.000594376
0.000594154
0.000593962
0.0005938
0.000593664
0.000593552
0.00059346
0.000593386
0.000593327
0.00059328
0.000593246
0.000593221
0.000593204
0.000593195
0.000593192
0.000593195
0.000593204
0.000596268
0.000596693
0.000596823
0.000596548
0.000596115
0.000595657
0.000595224
0.000594839
0.000594506
0.000594226
0.000593992
0.000593798
0.00059364
0.00059351
0.000593406
0.000593322
0.000593255
0.000593203
0.000593164
0.000593135
0.000593115
0.000593104
0.000593099
0.000593101
0.000593108
0.000598402
0.000598511
0.00059827
0.000597598
0.000596833
0.000596129
0.000595524
0.000595019
0.000594605
0.000594268
0.000593995
0.000593776
0.000593598
0.000593456
0.000593342
0.000593251
0.00059318
0.000593124
0.000593082
0.000593051
0.000593029
0.000593016
0.00059301
0.000593011
0.000593018
0.000602325
0.000601344
0.000600138
0.000598772
0.000597544
0.000596541
0.000595748
0.000595125
0.000594639
0.000594257
0.000593957
0.00059372
0.000593532
0.000593382
0.000593264
0.000593171
0.000593097
0.000593041
0.000592998
0.000592966
0.000592944
0.000592931
0.000592924
0.000592925
0.000592931
0.000611227
0.000606121
0.000602364
0.00059986
0.000598062
0.000596749
0.000595794
0.00059509
0.000594564
0.000594164
0.000593856
0.000593616
0.000593429
0.000593282
0.000593166