/*--------------------------------*- C++ -*----------------------------------*\
  =========                 |
  \\      /  F ield         | OpenFOAM: The Open Source CFD Toolbox
   \\    /   O peration     | Website:  https://openfoam.org
    \\  /    A nd           | Version:  13
     \\/     M anipulation  |
\*---------------------------------------------------------------------------*/
FoamFile
{
    format      ascii;
    class       volScalarField;
    location    "17";
    object      p;
}
// * * * * * * * * * * * * * * * * * * * * * * * * * * * * * * * * * * * * * //

dimensions      [0 2 -2 0 0 0 0];

internalField   nonuniform List<scalar> 
6440
(
128.873
128.879
128.886
128.881
128.855
128.807
128.74
128.658
128.567
128.47
128.374
128.281
128.195
128.123
128.067
128.029
128.01
128.009
128.023
128.048
128.077
128.101
128.117
128.126
128.131
128.866
128.869
128.869
128.852
128.813
128.755
128.681
128.594
128.499
128.399
128.297
128.199
128.11
128.035
127.979
127.946
127.931
127.936
127.959
127.994
128.033
128.072
128.104
128.126
128.133
128.857
128.857
128.843
128.81
128.76
128.696
128.618
128.528
128.428
128.322
128.213
128.107
128.009
127.927
127.866
127.831
127.818
127.828
127.855
127.894
127.939
127.987
128.032
128.065
128.073
128.844
128.837
128.809
128.765
128.708
128.638
128.555
128.458
128.349
128.23
128.107
127.984
127.871
127.775
127.704
127.665
127.657
127.675
127.711
127.757
127.809
127.861
127.909
127.944
127.941
128.821
128.805
128.768
128.718
128.657
128.582
128.491
128.384
128.262
128.126
127.981
127.836
127.701
127.587
127.505
127.464
127.461
127.488
127.536
127.594
127.655
127.714
127.763
127.795
127.783
128.795
128.773
128.732
128.678
128.611
128.527
128.425
128.303
128.161
128
127.825
127.649
127.484
127.35
127.266
127.234
127.244
127.284
127.345
127.419
127.496
127.565
127.616
127.647
127.63
128.786
128.76
128.717
128.658
128.582
128.487
128.369
128.226
128.056
127.859
127.643
127.422
127.219
127.067
126.995
126.992
127.031
127.091
127.169
127.26
127.353
127.433
127.489
127.523
127.507
128.809
128.781
128.735
128.672
128.587
128.478
128.343
128.176
127.975
127.739
127.478
127.208
126.966
126.805
126.752
126.783
126.856
126.942
127.037
127.143
127.248
127.337
127.401
127.444
127.437
128.868
128.838
128.789
128.719
128.625
128.505
128.354
128.167
127.938
127.669
127.369
127.065
126.807
126.655
126.62
126.665
126.757
126.859
126.966
127.082
127.193
127.288
127.359
127.42
127.427
128.948
128.918
128.866
128.79
128.69
128.561
128.398
128.196
127.949
127.659
127.335
127.008
126.738
126.591
126.572
126.627
126.726
126.837
126.953
127.073
127.188
127.286
127.369
127.444
127.47
129.031
129.001
128.945
128.866
128.761
128.626
128.457
128.247
127.993
127.695
127.367
127.038
126.763
126.605
126.58
126.642
126.746
126.864
126.986
127.109
127.225
127.329
127.418
127.51
127.551
129.091
129.061
129.004
128.922
128.814
128.677
128.505
128.292
128.037
127.744
127.424
127.107
126.837
126.668
126.623
126.683
126.797
126.922
127.05
127.177
127.298
127.405
127.504
127.601
127.655
129.114
129.083
129.025
128.941
128.831
128.691
128.515
128.3
128.044
127.755
127.446
127.147
126.892
126.725
126.667
126.716
126.839
126.992
127.137
127.272
127.398
127.51
127.607
127.707
127.764
129.099
129.066
129.005
128.918
128.803
128.657
128.473
128.248
127.985
127.692
127.388
127.1
126.865
126.715
126.672
126.733
126.873
127.052
127.235
127.39
127.524
127.637
127.728
127.813
127.866
129.039
129.003
128.94
128.85
128.73
128.575
128.378
128.137
127.855
127.546
127.232
126.945
126.719
126.584
126.572
126.682
126.88
127.115
127.344
127.537
127.676
127.776
127.849
127.912
127.957
128.936
128.899
128.834
128.741
128.615
128.449
128.236
127.973
127.665
127.327
126.991
126.692
126.463
126.332
126.326
126.467
126.752
127.113
127.445
127.692
127.84
127.925
127.973
128.005
128.035
128.811
128.771
128.705
128.607
128.473
128.293
128.061
127.773
127.433
127.06
126.691
126.365
126.117
125.974
125.975
126.128
126.446
126.887
127.357
127.744
127.966
128.062
128.098
128.1
128.107
128.682
128.642
128.571
128.467
128.322
128.127
127.873
127.555
127.179
126.767
126.353
125.988
125.707
125.548
125.531
125.698
126.031
126.508
127.048
127.521
127.891
128.111
128.213
128.193
128.186
128.571
128.53
128.454
128.341
128.184
127.972
127.694
127.347
126.936
126.48
126.021
125.607
125.287
125.09
125.059
125.221
125.58
126.078
126.631
127.163
127.622
127.988
128.214
128.287
128.263
128.489
128.447
128.365
128.243
128.072
127.842
127.54
127.162
126.711
126.208
125.695
125.221
124.846
124.623
124.573
124.744
125.139
125.696
126.314
126.894
127.397
127.824
128.154
128.239
128.278
128.439
128.397
128.308
128.178
127.997
127.753
127.434
127.036
126.558
126.024
125.47
124.953
124.528
124.276
124.221
124.394
124.801
125.394
126.074
126.734
127.333
127.891
128.407
128.696
128.883
128.413
128.378
128.288
128.156
127.971
127.723
127.402
126.999
126.516
125.967
125.393
124.84
124.375
124.106
124.077
124.233
124.6
125.166
125.863
126.582
127.253
127.869
128.461
128.98
129.399
128.401
128.382
128.302
128.171
127.988
127.743
127.429
127.04
126.573
126.032
125.452
124.89
124.421
124.145
124.153
124.318
124.669
125.186
125.845
126.564
127.251
127.859
128.382
128.842
129.238
128.389
128.39
128.338
128.218
128.036
127.797
127.498
127.133
126.7
126.206
125.677
125.156
124.716
124.433
124.411
124.605
124.932
125.378
125.95
126.601
127.245
127.825
128.315
128.732
129.053
128.379
128.39
128.373
128.279
128.106
127.873
127.591
127.26
126.879
126.455
126.013
125.585
125.225
124.984
124.935
125.091
125.357
125.707
126.162
126.704
127.261
127.762
128.183
128.532
128.81
128.371
128.382
128.38
128.322
128.173
127.954
127.691
127.395
127.071
126.727
126.38
126.059
125.786
125.601
125.545
125.638
125.828
126.086
126.426
126.847
127.292
127.7
128.045
128.337
128.574
128.364
128.369
128.362
128.316
128.198
128.005
127.769
127.512
127.244
126.975
126.719
126.484
126.293
126.164
126.118
126.164
126.284
126.461
126.704
127.013
127.346
127.654
127.922
128.153
128.353
128.358
128.352
128.323
128.262
128.152
127.992
127.795
127.584
127.375
127.178
126.999
126.849
126.728
126.644
126.614
126.636
126.696
126.803
126.97
127.186
127.416
127.63
127.823
128.002
128.156
128.349
128.33
128.265
128.169
128.051
127.91
127.754
127.597
127.452
127.328
127.231
127.151
127.095
127.053
127.029
127.027
127.05
127.11
127.216
127.351
127.49
127.624
127.754
127.875
127.985
128.326
128.287
128.189
128.067
127.933
127.795
127.663
127.551
127.472
127.426
127.407
127.406
127.402
127.392
127.374
127.357
127.355
127.38
127.429
127.491
127.557
127.628
127.7
127.771
127.832
128.29
128.233
128.124
127.989
127.846
127.699
127.564
127.471
127.444
127.477
127.543
127.609
127.659
127.677
127.666
127.638
127.611
127.598
127.595
127.601
127.614
127.634
127.655
127.675
127.69
128.259
128.196
128.085
127.946
127.799
127.65
127.504
127.402
127.403
127.5
127.645
127.786
127.88
127.92
127.911
127.863
127.805
127.754
127.713
127.68
127.652
127.626
127.6
127.577
127.552
128.237
128.164
128.049
127.912
127.776
127.635
127.486
127.382
127.393
127.53
127.741
127.933
128.065
128.114
128.089
128.013
127.926
127.85
127.785
127.722
127.656
127.591
127.531
127.472
127.413
128.19
128.102
127.976
127.843
127.726
127.614
127.481
127.381
127.41
127.584
127.822
128.031
128.158
128.198
128.158
128.069
127.975
127.891
127.808
127.721
127.63
127.537
127.446
127.358
127.271
128.101
127.988
127.836
127.69
127.592
127.508
127.407
127.332
127.378
127.57
127.833
128.041
128.157
128.189
128.149
128.072
127.988
127.9
127.804
127.696
127.581
127.463
127.348
127.237
127.122
127.956
127.815
127.627
127.463
127.361
127.3
127.237
127.183
127.234
127.434
127.704
127.94
128.074
128.118
128.1
128.05
127.98
127.888
127.772
127.641
127.505
127.37
127.239
127.107
126.971
127.742
127.581
127.367
127.185
127.084
127.039
127.008
126.988
127.051
127.25
127.531
127.783
127.941
128.012
128.026
128.002
127.935
127.827
127.693
127.55
127.405
127.261
127.117
126.973
126.821
127.45
127.294
127.079
126.905
126.817
126.787
126.786
126.796
126.87
127.063
127.342
127.605
127.782
127.879
127.918
127.902
127.828
127.714
127.58
127.437
127.29
127.142
126.992
126.836
126.674
127.111
126.99
126.81
126.666
126.604
126.589
126.609
126.644
126.719
126.891
127.156
127.413
127.604
127.72
127.768
127.751
127.68
127.574
127.447
127.309
127.164
127.016
126.862
126.701
126.529
126.809
126.734
126.61
126.51
126.476
126.468
126.502
126.554
126.628
126.77
126.99
127.226
127.42
127.542
127.592
127.578
127.516
127.419
127.301
127.172
127.033
126.887
126.732
126.566
126.388
126.633
126.594
126.52
126.458
126.434
126.436
126.474
126.53
126.599
126.7
126.862
127.068
127.248
127.364
127.411
127.4
127.345
127.26
127.154
127.034
126.902
126.759
126.603
126.434
126.25
126.641
126.607
126.547
126.494
126.472
126.486
126.515
126.561
126.616
126.674
126.785
126.951
127.102
127.201
127.24
127.23
127.183
127.108
127.013
126.9
126.773
126.631
126.475
126.304
126.117
126.819
126.765
126.683
126.624
126.6
126.61
126.613
126.634
126.666
126.69
126.761
126.879
126.99
127.064
127.092
127.081
127.038
126.969
126.879
126.771
126.647
126.506
126.35
126.178
125.989
127.077
127.011
126.9
126.818
126.784
126.772
126.745
126.739
126.744
126.746
126.783
126.847
126.913
126.959
126.972
126.954
126.91
126.842
126.755
126.648
126.525
126.386
126.23
126.058
125.868
127.298
127.252
127.139
127.04
126.994
126.962
126.912
126.875
126.844
126.832
126.834
126.842
126.866
126.883
126.876
126.847
126.798
126.728
126.639
126.533
126.411
126.272
126.116
125.945
125.755
127.392
127.391
127.327
127.255
127.221
127.178
127.099
127.021
126.957
126.932
126.893
126.853
126.842
126.828
126.8
126.757
126.699
126.625
126.534
126.427
126.304
126.166
126.012
125.84
125.652
127.369
127.387
127.391
127.39
127.387
127.338
127.241
127.138
127.064
127.017
126.937
126.868
126.826
126.784
126.736
126.68
126.613
126.533
126.439
126.33
126.207
126.068
125.914
125.745
125.557
127.318
127.335
127.359
127.382
127.394
127.368
127.295
127.199
127.132
127.061
126.956
126.871
126.806
126.743
126.68
126.613
126.537
126.451
126.353
126.242
126.118
125.979
125.826
125.657
125.473
127.262
127.267
127.281
127.301
127.326
127.326
127.284
127.22
127.158
127.066
126.948
126.857
126.779
126.704
126.63
126.553
126.47
126.378
126.277
126.163
126.037
125.899
125.746
125.58
125.397
127.205
127.199
127.198
127.209
127.236
127.254
127.238
127.205
127.139
127.034
126.921
126.833
126.747
126.664
126.582
126.498
126.409
126.313
126.207
126.092
125.965
125.826
125.675
125.51
125.331
127.162
127.147
127.136
127.14
127.16
127.179
127.181
127.158
127.094
126.988
126.887
126.799
126.711
126.623
126.536
126.447
126.353
126.252
126.144
126.027
125.9
125.761
125.611
125.449
125.272
127.135
127.119
127.104
127.102
127.11
127.123
127.131
127.101
127.036
126.945
126.851
126.761
126.671
126.582
126.491
126.398
126.3
126.197
126.087
125.969
125.841
125.703
125.555
125.395
125.223
127.127
127.114
127.103
127.098
127.091
127.093
127.089
127.053
126.978
126.893
126.809
126.72
126.63
126.54
126.447
126.351
126.252
126.147
126.035
125.916
125.789
125.652
125.505
125.349
125.18
127.137
127.132
127.128
127.124
127.097
127.082
127.055
127
126.928
126.849
126.764
126.678
126.589
126.498
126.404
126.307
126.205
126.099
125.987
125.868
125.741
125.606
125.462
125.308
125.144
127.157
127.16
127.17
127.163
127.116
127.077
127.024
126.953
126.881
126.805
126.723
126.637
126.548
126.457
126.362
126.264
126.162
126.055
125.943
125.824
125.699
125.565
125.423
125.274
125.113
127.173
127.181
127.199
127.187
127.129
127.067
126.991
126.916
126.842
126.764
126.682
126.597
126.508
126.416
126.321
126.223
126.121
126.014
125.902
125.785
125.66
125.529
125.391
125.243
125.089
127.176
127.182
127.196
127.183
127.125
127.045
126.959
126.886
126.806
126.725
126.644
126.558
126.469
126.377
126.282
126.184
126.082
125.976
125.865
125.748
125.626
125.497
125.361
125.219
125.068
127.159
127.165
127.172
127.158
127.104
127.014
126.929
126.851
126.769
126.688
126.605
126.52
126.431
126.339
126.244
126.146
126.045
125.939
125.83
125.715
125.594
125.468
125.336
125.197
125.052
127.128
127.134
127.138
127.123
127.068
126.973
126.898
126.814
126.732
126.651
126.568
126.482
126.393
126.301
126.207
126.11
126.009
125.905
125.797
125.684
125.566
125.443
125.314
125.18
125.039
127.093
127.1
127.104
127.086
127.022
126.929
126.858
126.776
126.695
126.614
126.53
126.445
126.356
126.265
126.172
126.075
125.976
125.873
125.766
125.656
125.54
125.42
125.295
125.165
125.03
127.06
127.068
127.07
127.046
126.971
126.891
126.817
126.737
126.657
126.576
126.493
126.407
126.32
126.23
126.137
126.042
125.944
125.843
125.738
125.629
125.517
125.4
125.278
125.153
125.022
127.03
127.037
127.036
127.005
126.92
126.855
126.776
126.697
126.618
126.538
126.455
126.371
126.284
126.195
126.103
126.009
125.913
125.814
125.711
125.605
125.495
125.382
125.265
125.143
125.018
127.004
127.011
127.004
126.959
126.873
126.811
126.735
126.657
126.58
126.5
126.418
126.334
126.248
126.16
126.07
125.978
125.883
125.786
125.686
125.582
125.476
125.366
125.252
125.135
125.014
126.981
126.987
126.974
126.911
126.834
126.768
126.694
126.618
126.541
126.462
126.381
126.299
126.214
126.127
126.038
125.948
125.855
125.76
125.662
125.561
125.458
125.351
125.241
125.128
125.013
126.962
126.967
126.945
126.865
126.801
126.728
126.654
126.579
126.502
126.424
126.344
126.262
126.179
126.094
126.007
125.918
125.827
125.734
125.639
125.541
125.441
125.338
125.231
125.123
125.012
126.942
126.946
126.913
126.822
126.761
126.688
126.613
126.539
126.463
126.386
126.307
126.227
126.145
126.061
125.976
125.889
125.801
125.71
125.618
125.523
125.425
125.325
125.223
125.118
125.012
126.92
126.924
126.874
126.783
126.721
126.648
126.574
126.5
126.425
126.348
126.271
126.191
126.111
126.029
125.946
125.861
125.775
125.687
125.597
125.505
125.41
125.314
125.215
125.116
125.013
126.895
126.9
126.831
126.751
126.681
126.608
126.534
126.46
126.386
126.311
126.234
126.157
126.077
125.997
125.916
125.834
125.75
125.664
125.577
125.488
125.397
125.304
125.209
125.112
125.015
126.872
126.877
126.79
126.722
126.643
126.569
126.495
126.421
126.347
126.273
126.198
126.121
126.044
125.966
125.887
125.807
125.725
125.642
125.558
125.471
125.384
125.294
125.203
125.111
125.017
126.853
126.853
126.749
126.686
126.604
126.528
126.454
126.381
126.308
126.235
126.161
126.087
126.011
125.935
125.858
125.78
125.701
125.621
125.539
125.456
125.371
125.285
125.198
125.109
125.02
126.837
126.825
126.708
126.645
126.564
126.486
126.413
126.34
126.268
126.196
126.124
126.051
125.978
125.904
125.83
125.754
125.677
125.6
125.521
125.441
125.359
125.277
125.192
125.108
125.022
126.816
126.788
126.669
126.602
126.52
126.443
126.37
126.298
126.227
126.157
126.087
126.017
125.946
125.874
125.802
125.728
125.655
125.58
125.504
125.426
125.348
125.268
125.188
125.106
125.025
126.783
126.741
126.629
126.554
126.475
126.398
126.326
126.255
126.186
126.118
126.051
125.982
125.913
125.844
125.774
125.704
125.632
125.56
125.487
125.413
125.337
125.261
125.183
125.106
125.028
126.737
126.684
126.583
126.503
126.425
126.351
126.28
126.212
126.145
126.079
126.013
125.948
125.881
125.814
125.747
125.679
125.61
125.541
125.471
125.399
125.327
125.254
125.18
125.105
125.031
126.68
126.615
126.528
126.447
126.373
126.301
126.233
126.167
126.103
126.039
125.977
125.913
125.849
125.785
125.72
125.655
125.589
125.522
125.455
125.386
125.317
125.247
125.176
125.105
125.033
126.607
126.536
126.462
126.386
126.316
126.249
126.184
126.121
126.06
126
125.939
125.879
125.818
125.756
125.694
125.632
125.568
125.504
125.44
125.374
125.307
125.24
125.172
125.104
125.036
126.521
126.453
126.391
126.322
126.258
126.195
126.134
126.075
126.017
125.96
125.903
125.845
125.787
125.728
125.669
125.609
125.548
125.487
125.425
125.362
125.298
125.234
125.168
125.104
125.039
126.43
126.371
126.319
126.258
126.199
126.141
126.085
126.029
125.975
125.921
125.867
125.812
125.756
125.7
125.644
125.586
125.528
125.47
125.41
125.35
125.289
125.227
125.165
125.103
125.041
126.34
126.291
126.246
126.192
126.141
126.087
126.035
125.984
125.933
125.882
125.832
125.779
125.727
125.673
125.619
125.565
125.509
125.453
125.396
125.339
125.28
125.221
125.162
125.103
125.043
126.255
126.215
126.177
126.13
126.083
126.035
125.988
125.94
125.893
125.845
125.797
125.748
125.698
125.647
125.596
125.544
125.491
125.437
125.383
125.328
125.272
125.215
125.159
125.102
125.046
126.176
126.143
126.111
126.07
126.029
125.985
125.942
125.898
125.854
125.81
125.765
125.718
125.671
125.623
125.574
125.524
125.474
125.422
125.37
125.318
125.264
125.21
125.156
125.102
125.048
126.104
126.077
126.049
126.014
125.977
125.938
125.898
125.858
125.817
125.776
125.733
125.69
125.645
125.599
125.553
125.505
125.457
125.408
125.358
125.308
125.257
125.205
125.154
125.102
125.051
126.038
126.016
125.993
125.961
125.929
125.893
125.857
125.82
125.782
125.744
125.704
125.663
125.62
125.577
125.533
125.488
125.442
125.395
125.347
125.299
125.25
125.201
125.151
125.102
125.053
125.979
125.96
125.94
125.913
125.884
125.851
125.819
125.784
125.749
125.713
125.676
125.638
125.597
125.556
125.514
125.471
125.427
125.382
125.337
125.291
125.244
125.197
125.15
125.102
125.055
125.926
125.91
125.893
125.868
125.842
125.813
125.783
125.751
125.719
125.685
125.65
125.614
125.576
125.537
125.497
125.456
125.414
125.371
125.327
125.283
125.238
125.193
125.148
125.103
125.057
125.879
125.864
125.849
125.827
125.804
125.777
125.749
125.72
125.69
125.659
125.626
125.591
125.555
125.518
125.48
125.441
125.401
125.36
125.318
125.276
125.233
125.189
125.146
125.103
125.06
125.836
125.824
125.81
125.79
125.769
125.744
125.719
125.691
125.663
125.634
125.603
125.57
125.536
125.501
125.465
125.427
125.389
125.35
125.31
125.269
125.227
125.186
125.144
125.103
125.061
125.799
125.788
125.776
125.757
125.738
125.714
125.691
125.665
125.639
125.611
125.582
125.551
125.519
125.485
125.45
125.415
125.378
125.34
125.302
125.262
125.223
125.183
125.143
125.103
125.063
125.767
125.756
125.746
125.728
125.71
125.688
125.666
125.642
125.617
125.591
125.563
125.534
125.503
125.471
125.437
125.403
125.367
125.331
125.294
125.256
125.218
125.18
125.141
125.103
125.064
125.738
125.729
125.72
125.703
125.686
125.665
125.644
125.622
125.598
125.573
125.546
125.518
125.489
125.458
125.425
125.392
125.358
125.323
125.288
125.251
125.214
125.177
125.14
125.103
125.066
125.715
125.707
125.698
125.682
125.666
125.646
125.626
125.605
125.582
125.558
125.532
125.505
125.476
125.446
125.415
125.383
125.35
125.316
125.282
125.246
125.211
125.175
125.139
125.103
125.067
125.696
125.688
125.68
125.665
125.65
125.631
125.612
125.591
125.568
125.545
125.52
125.493
125.466
125.436
125.406
125.375
125.343
125.31
125.277
125.242
125.208
125.173
125.138
125.103
125.069
125.682
125.674
125.667
125.652
125.637
125.619
125.6
125.579
125.558
125.535
125.51
125.484
125.457
125.428
125.399
125.368
125.337
125.305
125.272
125.239
125.205
125.172
125.138
125.104
125.07
125.673
125.665
125.658
125.643
125.628
125.61
125.591
125.571
125.549
125.526
125.502
125.476
125.45
125.422
125.393
125.363
125.332
125.301
125.269
125.237
125.204
125.171
125.138
125.105
125.072
125.669
125.66
125.653
125.637
125.623
125.605
125.586
125.565
125.543
125.52
125.496
125.471
125.444
125.417
125.388
125.359
125.329
125.298
125.267
125.235
125.202
125.17
125.138
125.106
125.073
125.669
125.659
125.652
125.635
125.62
125.602
125.582
125.562
125.54
125.516
125.492
125.467
125.44
125.413
125.385
125.356
125.326
125.296
125.265
125.233
125.202
125.17
125.138
125.107
125.075
125.672
125.661
125.654
125.636
125.62
125.602
125.581
125.56
125.538
125.514
125.49
125.464
125.438
125.411
125.383
125.354
125.324
125.294
125.264
125.233
125.202
125.17
125.139
125.108
125.076
125.682
125.667
125.662
125.643
125.624
125.603
125.582
125.56
125.537
125.513
125.489
125.463
125.437
125.409
125.381
125.353
125.323
125.294
125.263
125.233
125.202
125.171
125.14
125.109
125.078
125.723
125.689
125.674
125.651
125.628
125.606
125.583
125.561
125.537
125.513
125.488
125.463
125.436
125.409
125.381
125.352
125.323
125.293
125.263
125.233
125.202
125.171
125.14
125.109
125.079
125.8
125.722
125.683
125.654
125.63
125.607
125.584
125.561
125.538
125.513
125.488
125.463
125.436
125.409
125.381
125.352
125.323
125.293
125.263
125.233
125.202
125.171
125.141
125.11
125.079
129.538
129.54
129.541
129.542
129.542
129.543
129.543
129.542
129.542
129.543
129.544
129.543
129.542
129.539
129.533
129.521
129.501
129.47
129.43
129.394
129.38
129.39
129.41
129.422
129.424
129.534
129.533
129.534
129.537
129.54
129.544
129.546
129.546
129.544
129.54
129.536
129.531
129.526
129.522
129.516
129.504
129.484
129.453
129.416
129.383
129.366
129.372
129.395
129.414
129.419
129.533
129.529
129.528
129.529
129.532
129.533
129.53
129.523
129.513
129.5
129.487
129.477
129.468
129.461
129.455
129.448
129.437
129.419
129.395
129.373
129.365
129.375
129.393
129.408
129.412
129.538
129.533
129.529
129.527
129.524
129.515
129.501
129.482
129.462
129.441
129.421
129.401
129.383
129.369
129.36
129.356
129.356
129.359
129.362
129.367
129.378
129.393
129.408
129.414
129.415
129.547
129.542
129.538
129.532
129.52
129.5
129.473
129.442
129.411
129.381
129.349
129.317
129.286
129.26
129.241
129.233
129.24
129.259
129.287
129.324
129.365
129.403
129.423
129.426
129.422
129.557
129.554
129.549
129.54
129.521
129.491
129.453
129.411
129.369
129.327
129.283
129.236
129.189
129.147
129.114
129.097
129.098
129.121
129.163
129.223
129.295
129.367
129.418
129.429
129.423
129.565
129.563
129.559
129.55
129.527
129.492
129.446
129.395
129.342
129.287
129.23
129.168
129.103
129.04
128.989
128.956
128.945
128.962
129.008
129.077
129.167
129.272
129.367
129.417
129.417
129.569
129.568
129.567
129.56
129.54
129.505
129.455
129.397
129.335
129.27
129.201
129.123
129.039
128.954
128.879
128.826
128.799
128.804
128.844
128.917
129.015
129.134
129.267
129.371
129.402
129.571
129.569
129.569
129.568
129.556
129.528
129.481
129.42
129.352
129.278
129.198
129.109
129.009
128.904
128.805
128.731
128.692
128.684
128.718
128.789
128.884
129.001
129.139
129.28
129.351
129.572
129.569
129.568
129.572
129.573
129.558
129.522
129.464
129.391
129.311
129.224
129.127
129.017
128.899
128.784
128.695
128.651
128.642
128.672
128.738
128.826
128.93
129.056
129.188
129.278
129.576
129.569
129.567
129.574
129.586
129.592
129.574
129.525
129.452
129.37
129.281
129.183
129.072
128.952
128.831
128.73
128.676
128.675
128.706
128.77
128.855
128.949
129.055
129.17
129.248
129.581
129.57
129.563
129.569
129.584
129.604
129.614
129.591
129.527
129.443
129.355
129.26
129.159
129.052
128.946
128.851
128.787
128.774
128.8
128.859
128.943
129.038
129.136
129.235
129.3
129.581
129.564
129.549
129.546
129.555
129.576
129.603
129.611
129.582
129.515
129.432
129.343
129.25
129.157
129.069
128.992
128.936
128.913
128.933
128.986
129.07
129.167
129.266
129.359
129.425
129.577
129.553
129.53
129.517
129.516
129.531
129.556
129.578
129.579
129.551
129.493
129.418
129.334
129.248
129.169
129.105
129.061
129.045
129.067
129.125
129.213
129.316
129.421
129.514
129.592
129.579
129.553
129.522
129.499
129.486
129.491
129.505
129.526
129.543
129.541
129.517
129.469
129.402
129.328
129.258
129.2
129.167
129.164
129.197
129.263
129.355
129.463
129.573
129.674
129.763
129.594
129.57
129.531
129.496
129.466
129.458
129.462
129.477
129.498
129.514
129.513
129.491
129.447
129.393
129.337
129.292
129.268
129.275
129.316
129.388
129.484
129.592
129.703
129.808
129.898
129.621
129.604
129.558
129.506
129.457
129.434
129.428
129.436
129.457
129.481
129.495
129.49
129.464
129.427
129.389
129.361
129.349
129.363
129.41
129.487
129.586
129.694
129.801
129.899
129.975
129.651
129.645
129.594
129.525
129.463
129.424
129.405
129.406
129.422
129.445
129.466
129.472
129.459
129.431
129.403
129.386
129.386
129.408
129.461
129.545
129.651
129.764
129.872
129.962
130.015
129.659
129.679
129.626
129.558
129.493
129.44
129.403
129.389
129.393
129.406
129.423
129.434
129.432
129.415
129.39
129.374
129.379
129.407
129.466
129.556
129.67
129.796
129.914
130.008
130.056
129.648
129.716
129.672
129.623
129.555
129.478
129.414
129.375
129.36
129.36
129.368
129.378
129.381
129.374
129.358
129.343
129.342
129.367
129.422
129.513
129.633
129.77
129.908
130.02
130.078
129.481
129.646
129.671
129.647
129.577
129.479
129.39
129.333
129.305
129.298
129.303
129.309
129.312
129.308
129.298
129.288
129.286
129.301
129.345
129.423
129.537
129.678
129.827
129.957
130.024
129.599
129.592
129.615
129.596
129.526
129.427
129.332
129.263
129.224
129.205
129.199
129.198
129.195
129.189
129.18
129.172
129.171
129.182
129.215
129.277
129.376
129.506
129.65
129.779
129.849
129.435
129.47
129.496
129.485
129.421
129.326
129.231
129.156
129.106
129.076
129.058
129.043
129.03
129.013
128.995
128.98
128.972
128.977
128.996
129.04
129.113
129.217
129.337
129.444
129.483
129.233
129.306
129.34
129.331
129.273
129.183
129.088
129.006
128.945
128.9
128.864
128.832
128.798
128.762
128.725
128.689
128.661
128.644
128.642
128.657
128.697
128.763
128.846
128.924
128.957
128.993
129.095
129.138
129.132
129.078
128.993
128.899
128.811
128.736
128.672
128.615
128.556
128.496
128.43
128.361
128.29
128.223
128.162
128.11
128.074
128.054
128.056
128.075
128.096
128.057
128.748
128.856
128.903
128.897
128.846
128.765
128.669
128.573
128.481
128.393
128.304
128.214
128.115
128.008
127.892
127.769
127.639
127.504
127.367
127.229
127.097
126.976
126.869
126.781
126.707
128.505
128.604
128.646
128.637
128.587
128.505
128.404
128.295
128.181
128.062
127.938
127.802
127.657
127.495
127.315
127.116
126.896
126.649
126.373
126.068
125.727
125.355
124.949
124.535
124.044
128.278
128.355
128.383
128.367
128.312
128.224
128.112
127.983
127.84
127.685
127.515
127.332
127.126
126.895
126.634
126.334
125.988
125.582
125.101
124.525
123.833
123.006
121.998
120.908
119.574
128.068
128.117
128.127
128.097
128.03
127.928
127.797
127.641
127.464
127.267
127.05
126.806
126.533
126.221
125.858
125.431
124.921
124.302
123.53
122.561
121.299
119.657
117.309
114.278
108.575
127.876
127.894
127.881
127.832
127.745
127.62
127.462
127.275
127.061
126.82
126.548
126.244
125.893
125.488
125.007
124.428
123.717
122.828
121.685
120.176
118.091
115.245
110.605
105.179
86.8575
127.695
127.682
127.642
127.567
127.454
127.301
127.113
126.892
126.639
126.352
126.029
125.655
125.224
124.715
124.103
123.353
122.414
121.215
119.628
117.478
114.303
109.645
100.318
84.6507
26.6337
127.522
127.476
127.404
127.298
127.155
126.973
126.756
126.503
126.213
125.882
125.5
125.061
124.542
123.923
123.171
122.24
121.063
119.539
117.508
114.712
110.601
104.447
93.7704
76.3938
47.3678
127.349
127.269
127.164
127.027
126.856
126.648
126.403
126.12
125.794
125.417
124.981
124.467
123.861
123.131
122.238
121.128
119.719
117.893
115.467
112.169
107.533
100.891
91.3167
77.0848
60.046
127.174
127.062
126.927
126.762
126.566
126.334
126.065
125.752
125.389
124.966
124.471
123.89
123.195
122.358
121.331
120.052
118.43
116.337
113.589
109.91
104.914
98.0505
88.6637
75.5798
58.9182
126.999
126.86
126.699
126.511
126.292
126.039
125.743
125.4
124.999
124.532
123.985
123.335
122.562
121.625
120.477
119.046
117.238
114.918
111.896
107.915
102.611
95.5058
86.0365
73.456
57.6294
126.826
126.665
126.484
126.275
126.036
125.759
125.438
125.065
124.63
124.122
123.524
122.819
121.974
120.951
119.698
118.139
116.174
113.665
110.425
106.189
100.625
93.2899
83.7072
71.3306
56.0446
126.659
126.481
126.281
126.054
125.795
125.496
125.15
124.75
124.285
123.742
123.105
122.349
121.446
120.354
119.015
117.355
115.268
112.613
109.195
104.759
98.9563
91.3482
81.4561
68.6988
53.0558
126.498
126.305
126.09
125.846
125.568
125.25
124.884
124.462
123.972
123.401
122.729
121.937
120.989
119.845
118.446
116.714
114.541
111.784
108.242
103.646
97.6316
89.7212
79.3762
65.7638
48.9987
126.343
126.138
125.908
125.65
125.357
125.023
124.641
124.201
123.693
123.1
122.407
121.587
120.612
119.437
118.004
116.234
114.018
111.21
107.59
102.887
96.6462
88.3916
77.3304
62.334
43.5811
126.193
125.978
125.738
125.468
125.163
124.817
124.423
123.971
123.449
122.844
122.137
121.306
120.319
119.135
117.698
115.93
113.722
110.928
107.315
102.585
96.1374
87.461
74.8141
57.3681
33.1023
126.049
125.826
125.578
125.3
124.987
124.633
124.231
123.772
123.244
122.634
121.925
121.094
120.114
118.944
117.533
115.807
113.668
110.974
107.504
102.953
96.6514
87.9358
73.7001
53.485
15.9501
125.911
125.683
125.429
125.146
124.828
124.47
124.065
123.604
123.076
122.469
121.767
120.951
119.992
118.858
117.501
115.858
113.844
111.338
108.162
104.057
98.523
90.9445
78.6614
60.6042
10.3794
125.78
125.55
125.293
125.008
124.688
124.329
123.925
123.467
122.945
122.349
121.663
120.871
119.949
118.868
117.589
116.059
114.212
111.956
109.164
105.66
101.172
95.3668
87.4447
77.7161
58.2195
125.659
125.427
125.17
124.884
124.566
124.209
123.809
123.359
122.849
122.269
121.608
120.849
119.975
118.96
117.775
116.378
114.721
112.742
110.359
107.474
103.956
99.6605
94.3855
88.1393
80.3944
125.546
125.315
125.059
124.776
124.461
124.11
123.718
123.279
122.784
122.227
121.595
120.877
120.058
119.118
118.035
116.78
115.319
113.615
111.624
109.299
106.604
103.525
100.115
96.6467
93.7023
125.444
125.215
124.962
124.682
124.373
124.03
123.648
123.224
122.749
122.217
121.619
120.946
120.186
119.325
118.347
117.233
115.961
114.512
112.867
111.015
108.96
106.74
104.453
102.335
100.764
125.352
125.126
124.877
124.603
124.301
123.967
123.599
123.191
122.738
122.235
121.673
121.048
120.349
119.567
118.692
117.71
116.613
115.39
114.041
112.569
111.001
109.389
107.834
106.511
105.652
125.27
125.048
124.804
124.537
124.244
123.922
123.568
123.179
122.749
122.275
121.752
121.174
120.536
119.831
119.052
118.193
117.25
116.223
115.116
113.946
112.74
111.55
110.457
109.576
109.038
125.198
124.98
124.743
124.483
124.2
123.891
123.553
123.183
122.778
122.335
121.85
121.319
120.738
120.105
119.415
118.667
117.859
116.995