/*--------------------------------*- C++ -*----------------------------------*\
  =========                 |
  \\      /  F ield         | OpenFOAM: The Open Source CFD Toolbox
   \\    /   O peration     | Website:  https://openfoam.org
    \\  /    A nd           | Version:  13
     \\/     M anipulation  |
\*---------------------------------------------------------------------------*/
FoamFile
{
    format      ascii;
    class       surfaceScalarField;
    location    "17";
    object      phi;
}
// * * * * * * * * * * * * * * * * * * * * * * * * * * * * * * * * * * * * * //

dimensions      [0 3 -1 0 0 0 0];

internalField   nonuniform List<scalar> 
12590
(
6.57182e-14
-6.5718e-14
2.0412e-13
-1.38402e-13
3.64456e-13
-1.60335e-13
5.41003e-13
-1.76547e-13
7.39156e-13
-1.98152e-13
9.4445e-13
-2.05293e-13
1.14072e-12
-1.9627e-13
1.31104e-12
-1.70316e-13
1.43968e-12
-1.28636e-13
1.51405e-12
-7.4374e-14
1.53073e-12
-1.66784e-14
1.48681e-12
4.39221e-14
1.38665e-12
1.00158e-13
1.23806e-12
1.48596e-13
1.05089e-12
1.87176e-13
8.35456e-13
2.15431e-13
5.95719e-13
2.39739e-13
3.33266e-13
2.62454e-13
6.26769e-14
2.70591e-13
-2.16314e-13
2.78992e-13
-4.95071e-13
2.78758e-13
-7.21089e-13
2.26018e-13
-8.34749e-13
1.13659e-13
-5.8105e-13
-2.53698e-13
-5.8105e-13
1.34672e-13
-2.0039e-13
4.14394e-13
-4.18123e-13
7.84746e-13
-5.30686e-13
1.24139e-12
-6.33191e-13
1.76161e-12
-7.18367e-13
2.31995e-12
-7.63632e-13
2.8852e-12
-7.61526e-13
3.42583e-12
-7.10946e-13
3.91236e-12
-6.1516e-13
4.31736e-12
-4.79373e-13
4.60815e-12
-3.0746e-13
4.76174e-12
-1.09666e-13
4.79873e-12
6.31696e-14
4.72077e-12
2.26564e-13
4.53777e-12
3.70177e-13
4.28002e-12
4.73181e-13
3.93412e-12
5.85645e-13
3.50858e-12
6.87998e-13
3.0172e-12
7.61972e-13
2.48938e-12
8.06816e-13
1.94486e-12
8.23282e-13
1.40454e-12
7.66337e-13
8.74725e-13
6.43476e-13
3.40969e-13
2.80059e-13
-2.40081e-13
2.19033e-13
-4.19422e-13
6.50701e-13
-8.4979e-13
1.214e-12
-1.09398e-12
1.88799e-12
-1.30718e-12
2.63673e-12
-1.46711e-12
3.41352e-12
-1.54041e-12
4.16926e-12
-1.51726e-12
4.85672e-12
-1.39841e-12
5.43291e-12
-1.19134e-12
5.85943e-12
-9.05894e-13
6.09789e-12
-5.45923e-13
6.13918e-12
-1.50947e-13
5.99448e-12
2.07872e-13
5.67435e-12
5.46697e-13
5.24093e-12
8.03605e-13
4.67578e-12
1.03833e-12
4.02093e-12
1.2405e-12
3.32813e-12
1.3808e-12
2.62288e-12
1.46722e-12
1.94495e-12
1.48475e-12
1.32974e-12
1.4385e-12
8.13039e-13
1.28303e-12
4.32732e-13
1.02378e-12
1.51258e-13
5.61534e-13
-8.88226e-14
2.82515e-13
-7.01937e-13
7.99427e-13
-1.3667e-12
1.46515e-12
-1.75971e-12
2.25015e-12
-2.09218e-12
3.10417e-12
-2.32113e-12
3.96739e-12
-2.40363e-12
4.78029e-12
-2.33017e-12
5.48838e-12
-2.1065e-12
6.04481e-12
-1.74777e-12
6.40963e-12
-1.27072e-12
6.51935e-12
-6.55635e-13
6.43505e-12
-6.66428e-14
6.13865e-12
5.04272e-13
5.66911e-12
1.01624e-12
5.07814e-12
1.39458e-12
4.37133e-12
1.74514e-12
3.61842e-12
1.99342e-12
2.85012e-12
2.1491e-12
2.12328e-12
2.19407e-12
1.46628e-12
2.14175e-12
9.09454e-13
1.99533e-12
4.85641e-13
1.70685e-12
2.40515e-13
1.26891e-12
7.3701e-14
7.2835e-13
-1.51214e-14
3.13861e-13
-1.0158e-12
8.5034e-13
-1.90318e-12
1.5335e-12
-2.44287e-12
2.33355e-12
-2.89223e-12
3.1941e-12
-3.18168e-12
4.04997e-12
-3.2595e-12
4.83795e-12
-3.11814e-12
5.50209e-12
-2.77064e-12
5.99616e-12
-2.24183e-12
6.27766e-12
-1.55221e-12
6.31748e-12
-6.95458e-13
6.1478e-12
1.03042e-13
5.77109e-12
8.80986e-13
5.28465e-12
1.50269e-12
4.64785e-12
2.03138e-12
3.92837e-12
2.46462e-12
3.15727e-12
2.76453e-12
2.41249e-12
2.89388e-12
1.73638e-12
2.87019e-12
1.1593e-12
2.71883e-12
6.90139e-13
2.4645e-12
3.43719e-13
2.05327e-12
1.49459e-13
1.46317e-12
3.62071e-14
8.41605e-13
2.10863e-14
3.21465e-13
-1.33727e-12
8.31552e-13
-2.41327e-12
1.47491e-12
-3.08623e-12
2.22816e-12
-3.64548e-12
3.03618e-12
-3.9897e-12
3.8349e-12
-4.05822e-12
4.56239e-12
-3.84564e-12
5.16508e-12
-3.37333e-12
5.60057e-12
-2.67732e-12
5.82716e-12
-1.77879e-12
5.84314e-12
-7.11435e-13
5.65921e-12
2.86981e-13
5.29234e-12
1.24785e-12
4.82598e-12
1.96906e-12
4.23154e-12
2.62583e-12
3.56034e-12
3.13582e-12
2.86168e-12
3.4632e-12
2.17898e-12
3.57658e-12
1.55661e-12
3.49256e-12
1.0303e-12
3.24515e-12
6.18775e-13
2.87603e-12
2.9802e-13
2.37403e-12
1.0996e-13
1.65124e-12
8.23332e-15
9.43335e-13
2.93202e-14
3.14426e-13
-1.6517e-12
7.71166e-13
-2.87001e-12
1.34285e-12
-3.65791e-12
2.01664e-12
-4.31928e-12
2.74431e-12
-4.71737e-12
3.46699e-12
-4.78091e-12
4.12689e-12
-4.50553e-12
4.67475e-12
-3.92119e-12
5.07334e-12
-3.0759e-12
5.28478e-12
-1.99023e-12
5.31767e-12
-7.44315e-13
5.17922e-12
4.25432e-13
4.88785e-12
1.53924e-12
4.51002e-12
2.34689e-12
4.02465e-12
3.11121e-12
3.45665e-12
3.70383e-12
2.84958e-12
4.07028e-12
2.23141e-12
4.19477e-12
1.63742e-12
4.08656e-12
1.11123e-12
3.77135e-12
6.914e-13
3.29586e-12
3.62797e-13
2.70264e-12
1.32956e-13
1.88108e-12
5.22751e-15
1.07107e-12
3.45488e-14
2.99026e-13
-1.95073e-12
6.89824e-13
-3.26082e-12
1.17475e-12
-4.14284e-12
1.75535e-12
-4.89989e-12
2.39601e-12
-5.35803e-12
3.04308e-12
-5.42798e-12
3.64504e-12
-5.1075e-12
4.15716e-12
-4.43331e-12
4.54713e-12
-3.46587e-12
4.78587e-12
-2.22898e-12
4.8775e-12
-8.35938e-13
4.83e-12
4.72936e-13
4.67687e-12
1.69238e-12
4.42965e-12
2.59412e-12
4.09545e-12
3.44541e-12
3.6719e-12
4.12739e-12
3.18012e-12
4.56207e-12
2.62935e-12
4.74554e-12
2.03769e-12
4.67823e-12
1.46031e-12
4.34874e-12
9.589e-13
3.79727e-12
5.84226e-13
3.07732e-12
2.35703e-13
2.22961e-12
3.70909e-14
1.26969e-12
7.16411e-14
2.77917e-13
-2.22865e-12
5.97345e-13
-3.58025e-12
9.94698e-13
-4.5402e-12
1.48931e-12
-5.39451e-12
2.04854e-12
-5.91727e-12
2.63551e-12
-6.01495e-12
3.2046e-12
-5.6766e-12
3.71422e-12
-4.94293e-12
4.13641e-12
-3.88806e-12
4.45664e-12
-2.5492e-12
4.65896e-12
-1.03826e-12
4.7617e-12
3.70206e-13
4.75801e-12
1.69607e-12
4.68119e-12
2.67095e-12
4.52875e-12
3.59786e-12
4.30914e-12
4.34702e-12
3.96518e-12
4.90604e-12
3.4769e-12
5.23383e-12
2.87126e-12
5.28388e-12
2.23295e-12
4.98707e-12
1.56828e-12
4.46194e-12
9.93309e-13
3.65231e-12
5.00336e-13
2.72259e-12
1.30774e-13
1.63926e-12
2.02417e-13
2.52839e-13
-2.4815e-12
5.02809e-13
-3.83024e-12
8.1839e-13
-4.85579e-12
1.23716e-12
-5.81329e-12
1.75094e-12
-6.43106e-12
2.31792e-12
-6.58192e-12
2.89828e-12
-6.25697e-12
3.46113e-12
-5.50578e-12
3.97711e-12
-4.40403e-12
4.4453e-12
-3.01739e-12
4.81814e-12
-1.41109e-12
5.1247e-12
6.36548e-14
5.35191e-12
1.46886e-12
5.4541e-12
2.56878e-12
5.49474e-12
3.55723e-12
5.42355e-12
4.41822e-12
5.20447e-12
5.12513e-12
4.79799e-12
5.64033e-12
4.29607e-12
5.78581e-12
3.58559e-12
5.69756e-12
2.72512e-12
5.32243e-12
1.76014e-12
4.61729e-12
1.00806e-12
3.47469e-12
2.97243e-13
2.35009e-12
4.99663e-13
2.2665e-13
-2.70816e-12
4.1704e-13
-4.02064e-12
6.72873e-13
-5.11164e-12
1.05135e-12
-6.19178e-12
1.55644e-12
-6.93616e-12
2.16543e-12
-7.19092e-12
2.83633e-12
-6.92787e-12
3.52913e-12
-6.19858e-12
4.22589e-12
-5.10079e-12
4.93048e-12
-3.72198e-12
5.57827e-12
-2.05888e-12
6.17782e-12
-5.35887e-13
6.7314e-12
9.15301e-13
7.05991e-12
2.24029e-12
7.3271e-12
3.29005e-12
7.43099e-12
4.31435e-12
7.29066e-12
5.26548e-12
6.97783e-12
5.95317e-12
6.40038e-12
6.36327e-12
5.5674e-12
6.53056e-12
4.42116e-12
6.46869e-12
3.02058e-12
6.01788e-12
1.75034e-12
4.74494e-12
5.50362e-13
3.55008e-12
1.05003e-12
2.03077e-13
-2.91125e-12
3.56083e-13
-4.17367e-12
5.90515e-13
-5.34609e-12
9.82614e-13
-6.5839e-12
1.55105e-12
-7.5046e-12
2.28042e-12
-7.92029e-12
3.13202e-12
-7.77949e-12
4.07465e-12
-7.14121e-12
5.07404e-12
-6.10018e-12
6.11962e-12
-4.76755e-12
7.23674e-12
-3.17599e-12
8.2377e-12
-1.53684e-12
9.16211e-12
-9.09973e-15
9.96574e-12
1.43668e-12
1.0484e-11
2.77183e-12
1.0756e-11
4.04239e-12
1.0804e-11
5.21741e-12
1.05021e-11
6.2551e-12
9.73725e-12
7.12819e-12
8.47448e-12
7.79335e-12
6.79729e-12
8.1459e-12
4.921e-12
7.89419e-12
2.8258e-12
6.84017e-12
9.82089e-13
5.39381e-12
2.03213e-12
1.88566e-13
-3.09984e-12
3.41162e-13
-4.32628e-12
6.16187e-13
-5.62113e-12
1.1042e-12
-7.07192e-12
1.83661e-12
-8.23703e-12
2.80576e-12
-8.88946e-12
3.98454e-12
-8.95827e-12
5.32944e-12
-8.48612e-12
6.80675e-12
-7.57749e-12
8.38045e-12
-6.34124e-12
1.00778e-11
-4.87329e-12
1.17028e-11
-3.16183e-12
1.31769e-11
-1.48317e-12
1.44358e-11
1.77777e-13
1.53921e-11
1.81555e-12
1.59877e-11
3.4468e-12
1.61366e-11
5.06849e-12
1.57586e-11
6.63312e-12
1.47377e-11
8.14912e-12
1.29584e-11
9.57268e-12
1.04923e-11
1.0612e-11
7.60176e-12
1.07848e-11
4.44791e-12
9.99406e-12
1.5908e-12
8.25095e-12
3.62294e-12
1.88347e-13
-3.28821e-12
4.01029e-13
-4.53899e-12
8.04687e-13
-6.02482e-12
1.5002e-12
-7.76746e-12
2.53662e-12
-9.27347e-12
3.91013e-12
-1.0263e-11
5.59417e-12
-1.06423e-11
7.54879e-12
-1.04407e-11
9.7211e-12
-9.74979e-12
1.20515e-11
-8.6716e-12
1.44712e-11
-7.29297e-12
1.69787e-11
-5.66936e-12
1.93111e-11
-3.81559e-12
2.1229e-11
-1.7401e-12
2.26882e-11
3.56453e-13
2.35691e-11
2.56587e-12
2.37155e-11
4.92217e-12
2.31913e-11
7.15737e-12
2.18361e-11
9.50432e-12
1.94838e-11
1.1925e-11
1.60673e-11
1.40286e-11
1.16141e-11
1.5238e-11
6.8131e-12
1.47951e-11
2.43032e-12
1.26338e-11
6.05327e-12
2.1348e-13
-3.50171e-12
5.54027e-13
-4.87956e-12
1.19038e-12
-6.66119e-12
2.25371e-12
-8.83082e-12
3.77482e-12
-1.07946e-11
5.75609e-12
-1.22443e-11
8.17264e-12
-1.30589e-11
1.09795e-11
-1.32476e-11
1.41113e-11
-1.28816e-11
1.7481e-11
-1.20413e-11
2.09782e-11
-1.07902e-11
2.44758e-11
-9.16688e-12
2.78374e-11
-7.17714e-12
3.08934e-11
-4.79608e-12
3.30746e-11
-1.82473e-12
3.43812e-11
1.25933e-12
3.46194e-11
4.68397e-12
3.39099e-11
7.86692e-12
3.19371e-11
1.14771e-11
2.8557e-11
1.53051e-11
2.36584e-11
1.89272e-11
1.73076e-11
2.15888e-11
1.02251e-11
2.18777e-11
3.76853e-12
1.90904e-11
9.82182e-12
2.6971e-13
-3.77145e-12
8.38382e-13
-5.44826e-12
1.87217e-12
-7.695e-12
3.46106e-12
-1.04197e-11
5.66519e-12
-1.29987e-11
8.4865e-12
-1.50656e-11
1.18945e-11
-1.64669e-11
1.5834e-11
-1.71871e-11
2.0223e-11
-1.72706e-11
2.49468e-11
-1.67652e-11
2.98545e-11
-1.56978e-11
3.47552e-11
-1.40676e-11
3.94273e-11
-1.18492e-11
4.36223e-11
-8.99108e-12
4.71871e-11
-5.38954e-12
4.92132e-11
-7.66758e-13
4.98158e-11
4.08144e-12
4.89116e-11
8.77115e-12
4.6154e-11
1.42348e-11
4.13749e-11
2.00842e-11
3.45126e-11
2.57896e-11
2.56913e-11
3.04102e-11
1.56178e-11
3.19513e-11
5.91231e-12
2.87959e-11
1.57341e-11
3.71982e-13
-4.14345e-12
1.2847e-12
-6.361e-12
2.85071e-12
-9.26104e-12
5.16717e-12
-1.27362e-11
8.28378e-12
-1.61154e-11
1.22026e-11
-1.89845e-11
1.68872e-11
-2.11515e-11
2.2267e-11
-2.25669e-11
2.82365e-11
-2.32402e-11
3.46512e-11
-2.31799e-11
4.13214e-11
-2.2368e-11
4.80091e-11
-2.07554e-11
5.44295e-11
-1.82696e-11
6.02531e-11
-1.48147e-11
6.51487e-11
-1.02851e-11
6.87187e-11
-4.33675e-12
6.99976e-11
2.80261e-12
6.91979e-11
9.57086e-12
6.5815e-11
1.76177e-11
5.95496e-11
2.63496e-11
5.03451e-11
3.49941e-11
3.8388e-11
4.23674e-11
2.43328e-11
4.60065e-11
9.60828e-12
4.35205e-11
2.53424e-11
5.17e-13
-4.66046e-12
1.87773e-12
-7.72175e-12
4.14508e-12
-1.15284e-11
7.39316e-12
-1.59843e-11
1.16644e-11
-2.03866e-11
1.6953e-11
-2.42732e-11
2.32092e-11
-2.74077e-11
3.03449e-11
-2.97027e-11
3.82292e-11
-3.11245e-11
4.66842e-11
-3.16349e-11
5.54808e-11
-3.11647e-11
6.43373e-11
-2.96118e-11
7.29154e-11
-2.68478e-11
8.08266e-11
-2.27258e-11
8.76208e-11
-1.70794e-11
9.29692e-11
-9.6851e-12
9.56495e-11
1.22248e-13
9.56524e-11
9.56802e-12
9.23067e-11
2.09634e-11
8.50802e-11
3.35761e-11
7.3689e-11
4.63853e-11
5.80829e-11
5.79736e-11
3.87782e-11
6.53112e-11
1.62123e-11
6.60865e-11
4.15547e-11
7.05571e-13
-5.36603e-12
2.62849e-12
-9.64466e-12
5.75872e-12
-1.46586e-11
1.01434e-11
-2.03691e-11
1.58116e-11
-2.60549e-11
2.27425e-11
-3.12041e-11
3.08694e-11
-3.55347e-11
4.0081e-11
-3.89144e-11
5.02186e-11
-4.12622e-11
6.10715e-11
-4.24878e-11
7.23741e-11
-4.24673e-11
8.38035e-11
-4.10413e-11
9.4976e-11
-3.80204e-11
1.05448e-10
-3.31978e-11
1.14717e-10
-2.63483e-11
1.22286e-10
-1.72539e-11
1.27239e-10
-4.83122e-12
1.288e-10
8.00691e-12
1.26567e-10
2.3197e-11
1.19623e-10
4.05194e-11
1.07297e-10
5.87115e-11
8.87051e-11
7.65656e-11
6.3197e-11
9.08194e-11
3.07638e-11
9.85198e-11
7.23186e-11
9.46337e-13
-6.31236e-12
3.53929e-12
-1.22376e-11
7.69051e-12
-1.88099e-11
1.34153e-11
-2.60939e-11
2.07237e-11
-3.33633e-11
2.95723e-11
-4.00528e-11
3.98699e-11
-4.58324e-11
5.14759e-11
-5.05205e-11
6.41983e-11
-5.39847e-11
7.779e-11
-5.60796e-11
9.19464e-11
-5.66238e-11
1.06302e-10
-5.53967e-11
1.20425e-10
-5.21441e-11
1.33814e-10
-4.65863e-11
1.45898e-10
-3.84323e-11
1.56032e-10
-2.7388e-11
1.64426e-10
-1.3225e-11
1.69238e-10
3.19466e-12
1.69675e-10
2.27592e-11
1.65618e-10
4.45768e-11
1.56332e-10
6.7998e-11
1.41123e-10
9.17741e-11
1.18306e-10
1.13636e-10
8.45572e-11
1.32269e-10
1.56876e-10
9.21293e-13
-7.23363e-12
3.50916e-12
-1.48255e-11
7.53779e-12
-2.28385e-11
1.29661e-11
-3.15222e-11
1.98313e-11
-4.02285e-11
2.81755e-11
-4.83971e-11
3.80109e-11
-5.56678e-11
4.93149e-11
-6.18246e-11
6.20329e-11
-6.67028e-11
7.60837e-11
-7.01305e-11
9.13654e-11
-7.19056e-11
1.07759e-10
-7.17906e-11
1.25132e-10
-6.95167e-11
1.43332e-10
-6.4787e-11
1.62199e-10
-5.72989e-11
1.81578e-10
-4.67675e-11
2.01392e-10
-3.30387e-11
2.20634e-10
-1.60473e-11
2.39426e-10
3.96664e-12
2.57374e-10
2.66296e-11
2.73885e-10
5.14867e-11
2.88465e-10
7.71941e-11
3.00951e-10
1.01151e-10
3.17714e-10
1.15506e-10
1.08822e-10
3.65767e-10
1.10253e-12
-8.33612e-12
4.16617e-12
-1.78891e-11
8.90837e-12
-2.75807e-11
1.52474e-11
-3.78613e-11
2.31919e-11
-4.81731e-11
3.27647e-11
-5.79701e-11
4.39732e-11
-6.68764e-11
5.6797e-11
-7.46485e-11
7.11951e-11
-8.1101e-11
8.71101e-11
-8.60457e-11
1.04474e-10
-8.92699e-11
1.23216e-10
-9.0532e-11
1.43263e-10
-8.95637e-11
1.64553e-10
-8.60772e-11
1.87034e-10
-7.97803e-11
2.10667e-10
-7.04009e-11
2.35383e-10
-5.77544e-11
2.61101e-10
-4.17657e-11
2.87655e-10
-2.25867e-11
3.14961e-10
-6.76816e-13
3.42769e-10
2.36788e-11
3.70827e-10
4.91363e-11
3.97809e-10
7.41681e-11
4.17168e-10
9.61475e-11
1.16183e-10
4.09807e-10
1.26701e-12
-9.60309e-12
4.77696e-12
-2.1399e-11
1.02008e-11
-3.30045e-11
1.74183e-11
-4.50788e-11
2.64094e-11
-5.71642e-11
3.71804e-11
-6.87411e-11
4.97289e-11
-7.9425e-11
6.40389e-11
-8.89586e-11
8.00804e-11
-9.71426e-11
9.78158e-11
-1.03781e-10
1.17206e-10
-1.0866e-10
1.38217e-10
-1.11543e-10
1.60825e-10
-1.12172e-10
1.85026e-10
-1.10279e-10
2.10839e-10
-1.05593e-10
2.38304e-10
-9.78656e-11
2.67458e-10
-8.69086e-11
2.98321e-10
-7.26288e-11
3.308e-10
-5.50662e-11
3.64552e-10
-3.44282e-11
3.99181e-10
-1.09501e-11
4.33297e-10
1.50199e-11
4.63802e-10
4.36633e-11
4.83265e-10
7.66845e-11
1.21656e-10
4.77791e-10
1.41419e-12
-1.10172e-11
5.32981e-12
-2.53146e-11
1.13831e-11
-3.90578e-11
1.94202e-11
-5.31159e-11
2.93945e-11
-6.71384e-11
4.12942e-11
-8.06409e-11
5.511e-11
-9.32409e-11
7.08257e-11
-1.04674e-10
8.84192e-11
-1.14736e-10
1.07867e-10
-1.23229e-10
1.2915e-10
-1.29943e-10
1.52259e-10
-1.34651e-10
1.77199e-10
-1.37112e-10
2.03996e-10
-1.37076e-10
2.32699e-10
-1.34295e-10
2.63369e-10
-1.28535e-10
2.96056e-10
-1.19596e-10
3.30751e-10
-1.07325e-10
3.67298e-10
-9.16129e-11
4.05247e-10
-7.23773e-11
4.4371e-10
-4.9413e-11
4.80877e-10
-2.21465e-11
5.13524e-10
1.10157e-11
5.36379e-10
5.38303e-11
1.14723e-10
5.43312e-10
1.54125e-12
-1.25584e-11
5.81409e-12
-2.95873e-11
1.24293e-11
-4.5673e-11
2.12051e-11
-6.18917e-11
3.20708e-11
-7.80042e-11
4.49985e-11
-9.35687e-11
5.99699e-11
-1.08212e-10
7.69667e-11
-1.21671e-10
9.59697e-11
-1.33739e-10
1.16962e-10
-1.44222e-10
1.39936e-10
-1.52917e-10
1.64892e-10
-1.59607e-10
1.91847e-10
-1.64067e-10
2.20831e-10
-1.66061e-10
2.51891e-10
-1.65355e-10
2.85069e-10
-1.61713e-10
3.20379e-10
-1.54906e-10
3.57754e-10
-1.447e-10
3.96961e-10
-1.30819e-10
4.37464e-10
-1.12881e-10
4.78274e-10
-9.02227e-11
5.17732e-10
-6.16048e-11
5.53453e-10
-2.47049e-11
5.82639e-10
2.46444e-11
9.34585e-11
6.03903e-10
1.64649e-12
-1.42048e-11
6.22337e-12
-3.41642e-11
1.33241e-11
-5.27736e-11
2.27442e-11
-7.13118e-11
3.43927e-11
-8.96527e-11
4.82261e-11
-1.07402e-10
6.42164e-11
-1.24203e-10
8.23402e-11
-1.39795e-10
1.02577e-10
-1.53976e-10
1.2491e-10
-1.66556e-10
1.49333e-10
-1.7734e-10
1.75847e-10
-1.86122e-10
2.04466e-10
-1.92686e-10
2.3521e-10
-1.96806e-10
2.68104e-10
-1.98249e-10
3.03158e-10
-1.96767e-10
3.4034e-10
-1.92089e-10
3.79534e-10
-1.83893e-10
4.2047e-10
-1.71756e-10
4.62642e-10
-1.55053e-10
5.05221e-10
-1.32802e-10
5.47043e-10
-1.03427e-10
5.86774e-10
-6.44357e-11
6.23509e-10
-1.20908e-11
5.87504e-11
6.58217e-10
1.72922e-12
-1.5934e-11
6.55458e-12
-3.89894e-11
1.40599e-11
-6.0279e-11
2.40234e-11
-8.12752e-11
3.63363e-11
-1.01966e-10
5.09411e-11
-1.22007e-10
6.77993e-11
-1.41061e-10
8.688e-11
-1.58876e-10
1.08157e-10
-1.75253e-10
1.31612e-10
-1.9001e-10
1.5723e-10
-2.02959e-10
1.85009e-10
-2.13901e-10
2.14951e-10
-2.22627e-10
2.4706e-10
-2.28915e-10
2.81337e-10
-2.32526e-10
3.17761e-10
-2.3319e-10
3.5627e-10
-2.30597e-10
3.96728e-10
-2.24351e-10
4.3889e-10
-2.13918e-10
4.82367e-10
-1.98529e-10
5.26621e-10
-1.77056e-10
5.71047e-10
-1.47853e-10
6.15229e-10
-1.08617e-10
6.59484e-10
-5.63463e-11
1.2448e-11
7.05787e-10
1.7898e-12
-1.77237e-11
6.80825e-12
-4.40078e-11
1.46367e-11
-6.81073e-11
2.50406e-11
-9.1679e-11
3.78967e-11
-1.14822e-10
5.31343e-11
-1.37245e-10
7.07045e-11
-1.58631e-10
9.05677e-11
-1.78739e-10
1.12691e-10
-1.97376e-10
1.37047e-10
-2.14366e-10
1.63616e-10
-2.29528e-10
1.92385e-10
-2.4267e-10
2.23343e-10
-2.53586e-10
2.56481e-10
-2.62053e-10
2.9178e-10
-2.67825e-10
3.29203e-10
-2.70614e-10
3.6868e-10
-2.70074e-10
4.10091e-10
-2.65763e-10
4.5326e-10
-2.57087e-10
4.9796e-10
-2.43229e-10
5.43958e-10
-2.23055e-10
5.91143e-10
-1.95038e-10
6.3976e-10
-1.57234e-10
6.9081e-10
-1.07396e-10
-4.33141e-11
7.46572e-10
1.82948e-12
-1.9553e-11
6.98782e-12
-4.9166e-11
1.50604e-11
-7.61798e-11
2.58042e-11
-1.02423e-10
3.90843e-11
-1.28102e-10
5.48183e-11
-1.52979e-10
7.29471e-11
-1.7676e-10
9.34224e-11
-1.99215e-10
1.16203e-10
-2.20157e-10
1.41254e-10
-2.39417e-10
1.68547e-10
-2.56821e-10
1.9806e-10
-2.72183e-10
2.29773e-10
-2.85299e-10
2.63665e-10
-2.95946e-10
2.99712e-10
-3.03871e-10
3.37873e-10
-3.08775e-10
3.78092e-10
-3.10293e-10
4.20294e-10
-3.07964e-10
4.64393e-10
-3.01186e-10
5.10327e-10
-2.89162e-10
5.58127e-10
-2.70855e-10
6.08043e-10
-2.44955e-10
6.60738e-10
-2.09928e-10
7.17532e-10
-1.6419e-10
-1.06442e-10
7.8066e-10
1.85007e-12
-2.1403e-11
7.09894e-12
-5.44148e-11
1.53413e-11
-8.44221e-11
2.63301e-11
-1.13412e-10
3.99209e-11
-1.41693e-10
5.60215e-11
-1.69079e-10
7.45637e-11
-1.95302e-10
9.54906e-11
-2.20142e-10
1.18753e-10
-2.4342e-10
1.4431e-10
-2.64974e-10
1.72125e-10
-2.84637e-10
2.0217e-10
-3.02227e-10
2.34418e-10
-3.17547e-10
2.68846e-10
-3.30374e-10
3.0543e-10
-3.40455e-10
3.44143e-10
-3.47488e-10
3.84958e-10
-3.51108e-10
4.27854e-10
-3.50861e-10
4.72841e-10
-3.46173e-10
5.20001e-10
-3.36322e-10
5.6956e-10
-3.20414e-10
6.22004e-10
-2.97398e-10
6.78208e-10
-2.66132e-10
7.39584e-10
-2.25566e-10
-1.75029e-10
8.08171e-10
1.85383e-12
-2.32567e-11
7.14863e-12
-5.97094e-11
1.54931e-11
-9.27665e-11
2.66392e-11
-1.24558e-10
4.0436e-11
-1.55489e-10
5.67832e-11
-1.85427e-10
7.56046e-11
-2.14124e-10
9.68363e-11
-2.41373e-10
1.20423e-10
-2.67006e-10
1.46316e-10
-2.90868e-10
1.74477e-10
-3.12797e-10
2.0487e-10
-3.32621e-10
2.3747e-10
-3.50147e-10
2.72256e-10
-3.6516e-10
3.09212e-10
-3.77411e-10
3.48333e-10
-3.86609e-10
3.89627e-10
-3.92402e-10
4.33131e-10
-3.94365e-10
4.78941e-10
-3.91982e-10
5.27247e-10
-3.84628e-10
5.78409e-10
-3.71576e-10
6.33035e-10
-3.52024e-10
6.92076e-10
-3.25173e-10
7.56897e-10
-2.90387e-10
-2.47415e-10
8.29282e-10
1.84313e-12
-2.50997e-11
7.14469e-12
-6.50108e-11
1.55308e-11
-1.01153e-10
2.67556e-11
-1.35782e-10
4.06638e-11
-1.69398e-10
5.71489e-11
-2.01912e-10
7.61285e-11
-2.33104e-10
9.7533e-11
-2.62778e-10
1.21302e-10
-2.90775e-10
1.47383e-10
-3.16949e-10
1.75734e-10
-3.41148e-10
2.06319e-10
-3.63207e-10
2.39116e-10
-3.82943e-10
2.74108e-10
-4.00152e-10
3.11296e-10
-4.14599e-10
3.50697e-10
-4.26009e-10
3.92356e-10
-4.34061e-10
4.36362e-10
-4.38372e-10
4.82876e-10
-4.38496e-10
5.32169e-10
-4.33921e-10
5.84673e-10
-4.2408e-10
6.41043e-10
-4.08395e-10
7.02216e-10
-3.86347e-10
7.69436e-10
-3.57606e-10
-3.22201e-10
8.44222e-10
1.82044e-12
-2.692e-11
7.09505e-12
-7.02853e-11
1.54701e-11
-1.09527e-10
2.67042e-11
-1.47016e-10
4.06398e-11
-1.83333e-10
5.71663e-11
-2.18438e-10
7.61965e-11
-2.52134e-10
9.76567e-11
-2.84238e-10
1.21483e-10
-3.14602e-10
1.47621e-10
-3.43087e-10
1.76027e-10
-3.69554e-10
2.06667e-10
-3.93847e-10
2.39523e-10
-4.15799e-10
2.74588e-10
-4.35218e-10
3.11878e-10
-4.51889e-10
3.51432e-10
-4.65563e-10
3.93328e-10
-4.75956e-10
4.37696e-10
-4.8274e-10
4.84744e-10
-4.85544e-10
5.34789e-10
-4.83966e-10
5.88296e-10
-4.77587e-10
6.45916e-10
-4.66015e-10
7.08521e-10
-4.48952e-10
7.77204e-10
-4.26288e-10
-3.98229e-10
8.53232e-10
1.78799e-12
-2.87078e-11
7.00733e-12
-7.55045e-11
1.5326e-11
-1.17846e-10
2.65092e-11
-1.58199e-10
4.0399e-11
-1.97223e-10
5.68821e-11
-2.34921e-10
7.58683e-11
-2.7112e-10
9.72811e-11
-3.05651e-10
1.21055e-10
-3.38375e-10
1.47134e-10
-3.69167e-10
1.75475e-10
-3.97895e-10
2.06048e-10
-4.24421e-10
2.38839e-10
-4.4859e-10
2.73852e-10
-4.70231e-10
3.11115e-10
-4.89152e-10
3.50689e-10
-5.05137e-10
3.92674e-10
-5.17942e-10
4.37231e-10
-5.27296e-10
4.84595e-10
-5.32908e-10
5.35105e-10
-5.34476e-10
5.89225e-10
-5.31708e-10
6.47575e-10
-5.24364e-10
7.10935e-10
-5.12312e-10
7.80245e-10
-4.95598e-10
-4.74533e-10
8.56549e-10
1.74789e-12
-3.04555e-11
6.8885e-12
-8.06449e-11
1.51127e-11
-1.2607e-10
2.61934e-11
-1.6928e-10
3.99741e-11
-2.11004e-10
5.63401e-11
-2.51287e-10
7.51996e-11
-2.8998e-10
9.64748e-11
-3.26926e-10
1.20099e-10
-3.61999e-10
1.46016e-10
-3.95084e-10
1.74186e-10
-4.26064e-10
2.0458e-10
-4.54815e-10
2.3719e-10
-4.812e-10
2.72028e-10
-5.0507e-10
3.09135e-10
-5.26259e-10
3.48585e-10
-5.44586e-10
3.90495e-10
-5.59852e-10
4.35041e-10
-5.71842e-10
4.82471e-10
-5.80339e-10
5.33124e-10
-5.85128e-10
5.87444e-10
-5.86028e-10
6.45998e-10
-5.82919e-10
7.09473e-10
-5.75787e-10
7.7866e-10
-5.64785e-10
-5.50285e-10
8.54412e-10
1.70191e-12
-3.21573e-11
6.74476e-12
-8.56876e-11
1.48425e-11
-1.34168e-10
2.5777e-11
-1.80214e-10
3.93943e-11
-2.24621e-10
5.55796e-11
-2.67473e-10
7.42405e-11
-3.08641e-10
9.52986e-11
-3.47984e-10
1.18687e-10
-3.85388e-10
1.44351e-10
-4.20749e-10
1.72251e-10
-4.53964e-10
2.02362e-10
-4.84926e-10
2.3468e-10
-5.13518e-10
2.69225e-10
-5.39614e-10
3.06043e-10
-5.63077e-10
3.45216e-10
-5.8376e-10
3.86872e-10
-6.01508e-10
4.31191e-10
-6.16161e-10
4.78418e-10
-6.27566e-10
5.28879e-10
-6.35588e-10
5.82983e-10
-6.40133e-10
6.41236e-10
-6.41171e-10
7.04228e-10
-6.3878e-10
7.72621e-10
-6.33177e-10
-6.24767e-10
8.47102e-10
1.65161e-12
-3.38087e-11
6.58137e-12
-9.06171e-11
1.45262e-11
-1.42112e-10
2.52779e-11
-1.90966e-10
3.86855e-11
-2.38028e-10
5.46351e-11
-2.83422e-10
7.30346e-11
-3.2704e-10
9.38058e-11
-3.68756e-10
1.16882e-10
-4.08464e-10
1.4221e-10
-4.46076e-10
1.6975e-10
-4.81504e-10
1.99481e-10
-5.14657e-10
2.31401e-10
-5.45439e-10
2.65532e-10
-5.73746e-10
3.01926e-10
-5.99471e-10
3.40668e-10
-6.22502e-10
3.81884e-10
-6.42724e-10
4.25751e-10
-6.60028e-10
4.72503e-10
-6.74318e-10
5.22437e-10
-6.85523e-10
5.75924e-10
-6.93619e-10
6.33401e-10
-6.98648e-10
6.95369e-10
-7.00747e-10
7.62369e-10
-7.00177e-10
-6.97351e-10
8.34954e-10
1.59819e-12
-3.54067e-11
6.40277e-12
-9.54215e-11
1.41731e-11
-1.49882e-10
2.4711e-11
-2.01504e-10
3.78693e-11
-2.51187e-10
5.35359e-11
-2.99089e-10
7.16192e-11
-3.45124e-10
9.20415e-11
-3.89178e-10
1.14737e-10
-4.3116e-10
1.39652e-10
-4.70992e-10
1.66749e-10
-5.08602e-10
1.96008e-10
-5.43916e-10
2.27426e-10
-5.76857e-10
2.61028e-10
-6.07348e-10
2.96864e-10
-6.35307e-10
3.35017e-10
-6.60655e-10
3.75608e-10
-6.83315e-10
4.18801e-10
-7.03221e-10
4.6481e-10
-7.20327e-10
5.13901e-10
-7.34614e-10
5.66396e-10
-7.46114e-10
6.22665e-10
-7.54918e-10
6.83124e-10
-7.61206e-10
7.4821e-10
-7.65264e-10
-7.67499e-10
8.18358e-10
1.54267e-12
-3.69492e-11
6.21249e-12
-1.00091e-10
1.37905e-11
-1.5746e-10
2.40886e-11
-2.11802e-10
3.69641e-11
-2.64062e-10
5.23065e-11
-3.14431e-10
7.00256e-11
-3.62843e-10
9.00441e-11
-4.09197e-10
1.12297e-10
-4.53412e-10
1.36731e-10
-4.95426e-10
1.63307e-10
-5.35179e-10
1.92006e-10
-5.72614e-10
2.22825e-10
-6.07676e-10
2.55784e-10
-6.40308e-10
2.90932e-10
-6.70455e-10
3.28343e-10
-6.98066e-10
3.68128e-10
-7.231e-10
4.10434e-10
-7.45527e-10
4.55449e-10
-7.65341e-10
5.03402e-10
-7.82567e-10
5.54564e-10
-7.97276e-10
6.09243e-10
-8.09597e-10
6.67773e-10
-8.19736e-10
7.30498e-10
-8.27988e-10
-8.34752e-10
7.97751e-10
1.48575e-12
-3.84347e-11
6.01334e-12
-1.04618e-10
1.33845e-11
-1.64831e-10
2.3421e-11
-2.21838e-10
3.59847e-11
-2.76626e-10
5.09675e-11
-3.29414e-10
6.828e-11
-3.80155e-10
8.78458e-11
-4.28763e-10
1.096e-10
-4.75166e-10
1.33489e-10
-5.19315e-10
1.59473e-10
-5.61163e-10
1.8753e-10
-6.00672e-10
2.17656e-10
-6.37802e-10
2.49866e-10
-6.72518e-10
2.84201e-10
-7.04789e-10
3.20725e-10
-7.34591e-10
3.59535e-10
-7.6191e-10
4.00756e-10
-7.86748e-10
4.44546e-10
-8.09131e-10
4.91096e-10
-8.29118e-10
5.40628e-10
-8.46807e-10
5.93385e-10
-8.62355e-10
6.4963e-10
-8.7598e-10
7.0962e-10
-8.87979e-10
-8.98731e-10
7.736e-10
1.42802e-12
-3.98625e-11
5.80748e-12
-1.08998e-10
1.29597e-11
-1.71983e-10
2.27163e-11
-2.31595e-10
3.49436e-11
-2.88853e-10
4.95357e-11
-3.44006e-10
6.64045e-11
-3.97024e-10
8.5474e-11
-4.47832e-10
1.06679e-10
-4.96371e-10
1.29965e-10
-5.42601e-10
1.55291e-10
-5.8649e-10
1.82631e-10
-6.28012e-10
2.11977e-10
-6.67148e-10
2.43338e-10
-7.03879e-10
2.76743e-10
-7.38195e-10
3.12247e-10
-7.70095e-10
3.49926e-10
-7.99589e-10
3.89883e-10
-8.26704e-10
4.32244e-10
-8.51492e-10
4.77161e-10
-8.74035e-10
5.24807e-10
-8.94453e-10
5.75366e-10
-9.12915e-10
6.29032e-10
-9.29646e-10
6.85988e-10
-9.44935e-10
-9.59139e-10
7.46396e-10
1.36983e-12
-4.12321e-11
5.59657e-12
-1.13224e-10
1.252e-11
-1.78906e-10
2.19811e-11
-2.41055e-10
3.38509e-11
-3.00723e-10
4.80255e-11
-3.5818e-10
6.4418e-11
-4.13417e-10
8.29525e-11
-4.66367e-10
1.03563e-10
-5.16982e-10
1.26194e-10
-5.65232e-10
1.50802e-10
-6.11097e-10
1.77356e-10
-6.54567e-10
2.05843e-10
-6.95634e-10
2.36262e-10
-7.34298e-10
2.68634e-10
-7.70567e-10
3.02996e-10
-8.04457e-10
3.39407e-10
-8.35999e-10
3.77943e-10
-8.6524e-10
4.18699e-10
-8.92249e-10
4.6179e-10
-9.17125e-10
5.07338e-10
-9.40001e-10
5.55477e-10
-9.61053e-10
6.06333e-10
-9.80503e-10
6.60025e-10
-9.98626e-10
-1.01575e-09
7.16641e-10
1.3115e-12
-4.25434e-11
5.38193e-12
-1.17294e-10
1.20684e-11
-1.85593e-10
2.12211e-11
-2.50208e-10
3.27153e-11
-3.12217e-10
4.64494e-11
-3.71914e-10
6.2337e-11
-4.29304e-10
8.03024e-11
-4.84332e-10
1.00279e-10
-5.36958e-10
1.22208e-10
-5.87161e-10
1.46044e-10
-6.34933e-10
1.71751e-10
-6.80274e-10
1.99307e-10
-7.2319e-10
2.28704e-10
-7.63696e-10
2.5995e-10
-8.01813e-10
2.93065e-10
-8.37573e-10
3.28089e-10
-8.71023e-10
3.65072e-10
-9.02223e-10
4.04079e-10
-9.31256e-10
4.45185e-10
-9.58231e-10
4.88471e-10
-9.83287e-10
5.34017e-10
-1.0066e-09
5.81896e-10
-1.02838e-09
6.32162e-10
-1.04889e-09
-1.06843e-09
6.84839e-10
1.25322e-12
-4.37964e-11
5.16462e-12
-1.21206e-10
1.16075e-11
-1.92035e-10
2.0441e-11
-2.59041e-10
3.15445e-11
-3.2332e-10
4.48182e-11
-3.85188e-10
6.01767e-11
-4.44663e-10
7.75437e-11
-5.01699e-10
9.6851e-11
-5.56266e-10
1.18038e-10
-6.08349e-10
1.41055e-10
-6.5795e-10
1.6586e-10
-7.05079e-10
1.92424e-10
-7.49754e-10
2.2073e-10
-7.92001e-10
2.5077e-10
-8.31853e-10
2.82551e-10
-8.69354e-10
3.16089e-10
-9.04561e-10
3.51412e-10
-9.37546e-10
3.88555e-10
-9.68399e-10
4.27556e-10
-9.97233e-10
4.68457e-10
-1.02419e-09
5.11291e-10
-1.04943e-09
5.56081e-10
-1.07317e-09
6.02824e-10
-1.09564e-09
-1.1171e-09
6.5149e-10
1.19519e-12
-4.49913e-11
4.94556e-12
-1.24956e-10
1.11397e-11
-1.98229e-10
1.96452e-11
-2.67547e-10
3.03454e-11
-3.3402e-10
4.31425e-11
-3.97985e-10
5.79513e-11
-4.59472e-10
7.46951e-11
-5.18443e-10
9.3304e-11
-5.74875e-10
1.13715e-10
-6.2876e-10
1.35873e-10
-6.80108e-10
1.59731e-10
-7.28937e-10
1.85252e-10
-7.75275e-10
2.12407e-10
-8.19156e-10
2.41177e-10
-8.60623e-10
2.71552e-10
-8.99729e-10
3.03528e-10
-9.36538e-10
3.3711e-10
-9.71127e-10
3.72303e-10
-1.00359e-09
4.09116e-10
-1.03405e-09
4.47551e-10
-1.06262e-09
4.87601e-10
-1.08948e-09
5.29243e-10
-1.11481e-09
5.72428e-10
-1.13882e-09
-1.16175e-09
6.17075e-10
1.13752e-12
-4.61286e-11
4.72561e-12
-1.28544e-10
1.06672e-11
-2.04171e-10
1.88377e-11
-2.75717e-10
2.91248e-11
-3.44307e-10
4.14321e-11
-4.10292e-10
5.56746e-11
-4.73714e-10
7.17751e-11
-5.34544e-10
8.96618e-11
-5.92761e-10
1.09269e-10
-6.48367e-10
1.30536e-10
-7.01375e-10
1.5341e-10
-7.51812e-10
1.77846e-10
-7.99711e-10
2.03806e-10
-8.45115e-10
2.31256e-10
-8.88073e-10
2.60171e-10
-9.28644e-10
2.9053e-10
-9.66896e-10
3.22313e-10
-1.00291e-09
3.55502e-10
-1.03678e-09
3.90074e-10
-1.06862e-09
4.26001e-10
-1.09855e-09
4.63238e-10
-1.12672e-09
5.01725e-10
-1.1533e-09
5.41371e-10
-1.17847e-09
-1.20243e-09
5.82053e-10
1.0804e-12
-4.72088e-11
4.50558e-12
-1.31968e-10
1.01919e-11
-2.09857e-10
1.80227e-11
-2.83548e-10
2.78893e-11
-3.54174e-10
3.96968e-11
-4.221e-10
5.33607e-11
-4.87378e-10
6.88025e-11
-5.49986e-10
8.59486e-11
-6.09908e-10
1.0473e-10
-6.67148e-10
1.25081e-10
-7.21727e-10
1.46945e-10
-7.73675e-10
1.70266e-10
-8.23033e-10
1.94996e-10
-8.69846e-10
2.21092e-10
-9.14169e-10
2.48511e-10
-9.56064e-10
2.77216e-10
-9.95601e-10
3.07168e-10
-1.03286e-09
3.38324e-10
-1.06794e-09
3.70637e-10
-1.10093e-09
4.04048e-10
-1.13196e-09
4.38485e-10
-1.16116e-09
4.73852e-10
-1.18867e-09
5.10026e-10
-1.21464e-09
-1.23925e-09
5.4685e-10
1.02393e-12
-4.82325e-11
4.28633e-12
-1.35231e-10
9.71614e-12
-2.15286e-10
1.72042e-11
-2.91036e-10
2.66455e-11
-3.63615e-10
3.79467e-11
-4.33401e-10
5.10233e-11
-5.00455e-10
6.5796e-11
-5.64759e-10
8.2189e-11
-6.26301e-10
1.0013e-10
-6.85089e-10
1.1955e-10
-7.41147e-10
1.40383e-10
-7.94509e-10
1.6257e-10
-8.45219e-10
1.86051e-10
-8.93327e-10
2.1077e-10
-9.38889e-10
2.36675e-10
-9.81968e-10
2.63709e-10
-1.02264e-09
2.91818e-10
-1.06097e-09
3.20938e-10
-1.09706e-09
3.51e-10
-1.13099e-09
3.81921e-10
-1.16288e-09
4.13603e-10
-1.19284e-09
4.45925e-10
-1.22099e-09
4.78736e-10
-1.24745e-09
-1.27237e-09
5.11852e-10
9.68333e-13
-4.92006e-11
4.06873e-12
-1.38331e-10
9.24205e-12
-2.20459e-10
1.63863e-11