/*--------------------------------*- C++ -*----------------------------------*\
  =========                 |
  \\      /  F ield         | OpenFOAM: The Open Source CFD Toolbox
   \\    /   O peration     | Website:  https://openfoam.org
    \\  /    A nd           | Version:  13
     \\/     M anipulation  |
\*---------------------------------------------------------------------------*/
FoamFile
{
    format      ascii;
    class       surfaceScalarField;
    location    "17";
    object      phi;
}
// * * * * * * * * * * * * * * * * * * * * * * * * * * * * * * * * * * * * * //

dimensions      [0 3 -1 0 0 0 0];

internalField   nonuniform List<scalar> 
12590
(
-2.1381e-08
2.08381e-08
1.56088e-08
-3.76381e-08
1.25478e-07
-1.09799e-07
2.63966e-07
-1.38994e-07
4.03198e-07
-1.39023e-07
5.29018e-07
-1.25874e-07
6.38893e-07
-1.09761e-07
7.33613e-07
-9.45156e-08
8.14204e-07
-8.03434e-08
8.813e-07
-6.65313e-08
9.33595e-07
-5.22143e-08
9.71212e-07
-3.66013e-08
9.90598e-07
-1.9367e-08
9.9304e-07
-1.17227e-09
9.74699e-07
1.81368e-08
9.37396e-07
3.86474e-08
8.75198e-07
6.17143e-08
7.92317e-07
8.39846e-08
6.86366e-07
1.05246e-07
5.61767e-07
1.25023e-07
4.20514e-07
1.40416e-07
2.75957e-07
1.43899e-07
1.46358e-07
1.28044e-07
5.01699e-08
9.24824e-08
4.89447e-08
2.16055e-08
-8.68106e-10
1.19713e-07
-1.35891e-07
2.45487e-07
-2.35544e-07
3.68869e-07
-2.6231e-07
4.82167e-07
-2.52213e-07
5.86773e-07
-2.30366e-07
6.84188e-07
-2.06795e-07
7.7426e-07
-1.84143e-07
8.5606e-07
-1.61802e-07
9.28653e-07
-1.38348e-07
9.89707e-07
-1.12654e-07
1.03777e-06
-8.37464e-08
1.07021e-06
-5.11615e-08
1.08517e-06
-1.5128e-08
1.07903e-06
2.47461e-08
1.05155e-06
6.6919e-08
1.00446e-06
1.08973e-07
9.3801e-07
1.5085e-07
8.51559e-07
1.91594e-07
7.47334e-07
2.29132e-07
6.26713e-07
2.60688e-07
4.88396e-07
2.81851e-07
3.30883e-07
2.843e-07
1.61178e-07
2.60117e-07
2.09528e-07
6.20456e-08
-6.28186e-08
1.85797e-07
-2.5958e-07
2.98393e-07
-3.47969e-07
3.9389e-07
-3.57688e-07
4.82027e-07
-3.39953e-07
5.68477e-07
-3.16296e-07
6.54377e-07
-2.92251e-07
7.38745e-07
-2.67762e-07
8.19236e-07
-2.41379e-07
8.93275e-07
-2.11321e-07
9.57493e-07
-1.75853e-07
1.00901e-06
-1.3384e-07
1.04386e-06
-8.48557e-08
1.05927e-06
-2.91246e-08
1.05334e-06
3.15916e-08
1.02709e-06
9.41592e-08
9.80192e-07
1.5624e-07
9.15468e-07
2.1602e-07
8.34264e-07
2.72645e-07
7.37999e-07
3.252e-07
6.26187e-07
3.7205e-07
4.96809e-07
4.10493e-07
3.45905e-07
4.34232e-07
1.75515e-07
4.29574e-07
3.84509e-07
9.56062e-08
-1.58228e-07
2.11684e-07
-3.75583e-07
2.96498e-07
-4.32518e-07
3.68538e-07
-4.29299e-07
4.41813e-07
-4.12732e-07
5.19856e-07
-3.93726e-07
6.02055e-07
-3.73484e-07
6.86207e-07
-3.50775e-07
7.69466e-07
-3.23486e-07
8.4882e-07
-2.89007e-07
9.19558e-07
-2.44947e-07
9.77334e-07
-1.89633e-07
1.01669e-06
-1.22412e-07
1.03341e-06
-4.38251e-08
1.02386e-06
4.26176e-08
9.89612e-07
1.29712e-07
9.32753e-07
2.13733e-07
8.57812e-07
2.91357e-07
7.68538e-07
3.61792e-07
6.68004e-07
4.25381e-07
5.57067e-07
4.82464e-07
4.34713e-07
5.32061e-07
2.98569e-07
5.70397e-07
1.48072e-07
5.78622e-07
5.32566e-07
1.11123e-07
-2.69295e-07
1.97236e-07
-4.61643e-07
2.56344e-07
-4.91301e-07
3.13263e-07
-4.85868e-07
3.77284e-07
-4.76002e-07
4.4875e-07
-4.6423e-07
5.27059e-07
-4.50713e-07
6.10705e-07
-4.32948e-07
6.97263e-07
-4.08228e-07
7.82396e-07
-3.72035e-07
8.6037e-07
-3.20714e-07
9.25114e-07
-2.51734e-07
9.6906e-07
-1.63853e-07
9.86386e-07
-5.8466e-08
9.72906e-07
5.81768e-08
9.31143e-07
1.73106e-07
8.64717e-07
2.80995e-07
7.7997e-07
3.76552e-07
6.82396e-07
4.59225e-07
5.76747e-07
5.30724e-07
4.65692e-07
5.92821e-07
3.5106e-07
6.46602e-07
2.29981e-07
6.89922e-07
1.04475e-07
7.04793e-07
6.36538e-07
9.76733e-08
-3.67077e-07
1.53357e-07
-5.1737e-07
1.93363e-07
-5.31061e-07
2.37843e-07
-5.29879e-07
2.89926e-07
-5.2733e-07
3.51912e-07
-5.25241e-07
4.2402e-07
-5.21348e-07
5.05333e-07
-5.12436e-07
5.93139e-07
-4.93876e-07
6.82488e-07
-4.5868e-07
7.66466e-07
-4.018e-07
8.36362e-07
-3.1828e-07
8.79769e-07
-2.04014e-07
8.89355e-07
-6.46356e-08
8.66982e-07
8.31649e-08
8.18343e-07
2.23676e-07
7.46706e-07
3.53621e-07
6.59313e-07
4.64438e-07
5.62431e-07
5.56102e-07
4.60774e-07
6.32e-07
3.57792e-07
6.95315e-07
2.5527e-07
7.47783e-07
1.56181e-07
7.90731e-07
5.78706e-08
8.00922e-07
6.94591e-07
6.73112e-08
-4.34717e-07
9.30324e-08
-5.43269e-07
1.13277e-07
-5.51275e-07
1.40781e-07
-5.56886e-07
1.76334e-07
-5.62311e-07
2.23762e-07
-5.71228e-07
2.83239e-07
-5.79491e-07
3.5611e-07
-5.82947e-07
4.3896e-07
-5.74119e-07
5.28115e-07
-5.44381e-07
6.16255e-07
-4.86329e-07
6.91017e-07
-3.88674e-07
7.28616e-07
-2.37683e-07
7.1549e-07
-4.6883e-08
6.78481e-07
1.23334e-07
6.27803e-07
2.7672e-07
5.60703e-07
4.21652e-07
4.83325e-07
5.42395e-07
4.01099e-07
6.3804e-07
3.17367e-07
7.15192e-07
2.33852e-07
7.77764e-07
1.5452e-07
8.27464e-07
7.80158e-08
8.63247e-07
1.36713e-08
8.66836e-07
7.0674e-07
2.95192e-08
-4.64646e-07
2.3171e-08
-5.374e-07
1.8742e-08
-5.46602e-07
2.08664e-08
-5.58874e-07
3.38792e-08
-5.7427e-07
5.83978e-08
-5.94652e-07
9.65224e-08
-6.15864e-07
1.49769e-07
-6.33636e-07
2.1838e-07
-6.39635e-07
2.97621e-07
-6.19588e-07
3.85422e-07
-5.69123e-07
4.64575e-07
-4.62785e-07
5.04357e-07
-2.70665e-07
4.69197e-07
-5.26865e-09
4.15698e-07
1.82148e-07
3.70399e-07
3.24381e-07
3.22444e-07
4.70892e-07
2.68573e-07
5.96057e-07
2.13472e-07
6.92357e-07
1.57873e-07
7.69116e-07
1.02777e-07
8.31339e-07
4.83983e-08
8.77757e-07
2.72551e-09
9.11754e-07
-3.14729e-08
8.95613e-07
6.74895e-07
-1.45771e-08
-4.50509e-07
-5.54761e-08
-4.9693e-07
-9.40616e-08
-5.07847e-07
-1.27636e-07
-5.2508e-07
-1.51853e-07
-5.49237e-07
-1.65598e-07
-5.80123e-07
-1.64585e-07
-6.15387e-07
-1.45508e-07
-6.5088e-07
-1.04181e-07
-6.78229e-07
-4.03465e-08
-6.79163e-07
4.1812e-08
-6.46288e-07
1.26097e-07
-5.39134e-07
1.82241e-07
-3.17896e-07
1.83329e-07
3.85804e-09
1.32907e-07
2.40391e-07
9.15538e-08
3.69497e-07
6.65555e-08
4.9678e-07
4.50085e-08
6.16952e-07
2.25046e-08
7.13184e-07
-9.354e-10
7.90368e-07
-2.54056e-08
8.52943e-07
-4.78229e-08
9.00501e-07
-6.96998e-08
9.26423e-07
-6.72169e-08
8.94063e-07
6.04605e-07
-6.23097e-08
-3.88684e-07
-1.38504e-07
-4.21086e-07
-2.12473e-07
-4.33653e-07
-2.82012e-07
-4.55243e-07
-3.44443e-07
-4.85996e-07
-3.98282e-07
-5.2547e-07
-4.40843e-07
-5.71742e-07
-4.69189e-07
-6.20924e-07
-4.79431e-07
-6.65876e-07
-4.63345e-07
-6.92259e-07
-4.21533e-07
-6.84631e-07
-3.42853e-07
-6.12981e-07
-2.27077e-07
-4.28861e-07
-1.11289e-07
-1.03178e-07
-9.33536e-08
2.30227e-07
-1.26067e-07
4.06549e-07
-1.43075e-07
5.14436e-07
-1.35433e-07
6.08787e-07
-1.26514e-07
7.02422e-07
-1.23745e-07
7.85073e-07
-1.23716e-07
8.51032e-07
-1.27703e-07
8.99385e-07
-1.21111e-07
9.23152e-07
-1.03371e-07
8.676e-07
4.99949e-07
-1.05832e-07
-2.83193e-07
-2.19339e-07
-3.07764e-07
-3.29698e-07
-3.22947e-07
-4.3556e-07
-3.4891e-07
-5.35853e-07
-3.84897e-07
-6.29949e-07
-4.30547e-07
-7.15959e-07
-4.846e-07
-7.91128e-07
-5.44336e-07
-8.51025e-07
-6.04297e-07
-8.8621e-07
-6.5463e-07
-8.88281e-07
-6.79796e-07
-8.41528e-07
-6.56401e-07
-7.20075e-07
-5.46941e-07
-5.10037e-07
-3.08751e-07
-3.1846e-07
4.31862e-08
-2.6561e-07
3.57193e-07
-2.82437e-07
5.32302e-07
-2.75764e-07
6.01725e-07
-2.45932e-07
6.70648e-07
-2.1876e-07
7.5551e-07
-2.00821e-07
8.29549e-07
-1.84043e-07
8.82923e-07
-1.70274e-07
8.99654e-07
-1.30897e-07
8.27632e-07
3.62691e-07
-1.43344e-07
-1.4017e-07
-2.93702e-07
-1.5744e-07
-4.37913e-07
-1.78258e-07
-5.77024e-07
-2.09174e-07
-7.1192e-07
-2.49047e-07
-8.42996e-07
-2.98517e-07
-9.69331e-07
-3.57242e-07
-1.08853e-06
-4.23789e-07
-1.19612e-06
-4.95093e-07
-1.28353e-06
-5.65212e-07
-1.33756e-06
-6.23609e-07
-1.33966e-06
-6.51644e-07
-1.25893e-06
-6.25131e-07
-1.05535e-06
-5.09461e-07
-7.38548e-07
-2.70893e-07
-4.65416e-07
8.67449e-08
-3.63147e-07
4.31407e-07
-3.66222e-07
6.04441e-07
-3.38481e-07
6.40545e-07
-2.9396e-07
7.06895e-07
-2.55637e-07
7.87987e-07
-2.28813e-07
8.48517e-07
-1.95662e-07
8.68235e-07
-1.50452e-07
7.68035e-07
2.07067e-07
-1.74236e-07
3.39417e-08
-3.53475e-07
2.20367e-08
-5.25064e-07
-6.00448e-09
-6.91989e-07
-4.1362e-08
-8.55963e-07
-8.40739e-08
-1.01803e-06
-1.35424e-07
-1.17803e-06
-1.96005e-07
-1.33448e-06
-2.66045e-07
-1.48371e-06
-3.44439e-07
-1.61823e-06
-4.28835e-07
-1.72638e-06
-5.13559e-07
-1.7877e-06
-5.88177e-07
-1.7762e-06
-6.34701e-07
-1.64883e-06
-6.34661e-07
-1.37177e-06
-5.46202e-07
-9.46323e-07
-3.36741e-07
-5.46433e-07
3.25616e-08
-3.87549e-07
4.45006e-07
-3.90632e-07
6.4055e-07
-3.48416e-07
6.60499e-07
-2.956e-07
7.28861e-07
-2.49181e-07
7.99615e-07
-2.11545e-07
8.17708e-07
-1.48821e-07
6.98421e-07
4.5808e-08
-1.96591e-07
2.30776e-07
-3.94038e-07
2.19902e-07
-5.82945e-07
1.83747e-07
-7.67852e-07
1.44514e-07
-9.50886e-07
1.00113e-07
-1.13402e-06
4.89175e-08
-1.31796e-06
-1.09575e-08
-1.50168e-06
-8.08976e-08
-1.68193e-06
-1.62599e-07
-1.85227e-06
-2.56746e-07
-2.00337e-06
-3.60671e-07
-2.12053e-06
-4.69143e-07
-2.18109e-06
-5.72443e-07
-2.15734e-06
-6.56854e-07
-2.00441e-06
-6.97736e-07
-1.67451e-06
-6.65497e-07
-1.15541e-06
-4.85903e-07
-6.22255e-07
-8.88227e-08
-3.92584e-07
4.08484e-07
-3.77356e-07
6.40055e-07
-3.17078e-07
6.62583e-07
-2.56272e-07
7.30175e-07
-1.99143e-07
7.58294e-07
-1.36056e-07
6.14304e-07
-1.08824e-07
-1.9114e-07
4.22767e-07
-3.82463e-07
4.12059e-07
-5.73249e-07
3.7572e-07
-7.66484e-07
3.38875e-07
-9.63174e-07
2.98164e-07
-1.16331e-06
2.50166e-07
-1.36499e-06
1.92298e-07
-1.56658e-06
1.22104e-07
-1.76517e-06
3.77043e-08
-1.95657e-06
-6.34223e-08
-2.13313e-06
-1.82253e-07
-2.28366e-06
-3.16623e-07
-2.39407e-06
-4.60803e-07
-2.44453e-06
-6.04766e-07
-2.41297e-06
-7.28779e-07
-2.2617e-06
-8.15723e-07
-1.9157e-06
-8.32149e-07
-1.32683e-06
-6.77917e-07
-6.69294e-07
-2.51094e-07
-3.58168e-07
3.23439e-07
-3.10521e-07
6.09353e-07
-2.35533e-07
6.49167e-07
-1.66079e-07
6.757e-07
-1.07462e-07
5.30314e-07
-2.43116e-07
-1.63039e-07
5.86913e-07
-3.31751e-07
5.82042e-07
-5.07768e-07
5.53076e-07
-6.91998e-07
5.2469e-07
-8.85696e-07
4.93176e-07
-1.08835e-06
4.54618e-07
-1.2987e-06
4.03994e-07
-1.51211e-06
3.37452e-07
-1.72331e-06
2.50678e-07
-1.92649e-06
1.41859e-07
-2.11536e-06
8.51703e-09
-2.28208e-06
-1.48321e-07
-2.41829e-06
-3.23256e-07
-2.514e-06
-5.08091e-07
-2.54802e-06
-6.9457e-07
-2.50646e-06
-8.5669e-07
-2.3639e-06
-9.76075e-07
-2.02786e-06
-1.01386e-06
-1.40796e-06
-8.74231e-07
-6.5904e-07
-4.2768e-07
-2.63209e-07
2.04719e-07
-1.86774e-07
5.65127e-07
-1.083e-07
5.85247e-07
-6.09187e-08
4.5128e-07
-3.25346e-07
-1.16909e-07
7.05182e-07
-2.57754e-07
7.24251e-07
-4.08264e-07
7.0498e-07
-5.70664e-07
6.88386e-07
-7.46246e-07
6.70679e-07
-9.36196e-07
6.46146e-07
-1.13848e-06
6.08522e-07
-1.34978e-06
5.50475e-07
-1.56291e-06
4.66273e-07
-1.77008e-06
3.50523e-07
-1.96212e-06
2.02976e-07
-2.13378e-06
2.41093e-08
-2.27723e-06
-1.76944e-07
-2.39463e-06
-3.92776e-07
-2.4732e-06
-6.12933e-07
-2.50317e-06
-8.31016e-07
-2.46094e-06
-1.01592e-06
-2.32396e-06
-1.15564e-06
-1.9948e-06
-1.20358e-06
-1.36638e-06
-1.06131e-06
-5.68196e-07
-5.97087e-07
-1.14564e-07
1.03567e-07
-1.97958e-08
4.78783e-07
3.41454e-08
3.79558e-07
-3.30677e-07
-6.75931e-08
7.7435e-07
-1.73255e-07
8.3128e-07
-2.90423e-07
8.23697e-07
-4.21133e-07
8.2103e-07
-5.67787e-07
8.19218e-07
-7.31275e-07
8.12046e-07
-9.11346e-07
7.9077e-07
-1.1045e-06
7.46648e-07
-1.30616e-06
6.69897e-07
-1.50581e-06
5.53791e-07
-1.69474e-06
3.93757e-07
-1.86103e-06
1.94917e-07
-2.0039e-06
-3.64023e-08
-2.11181e-06
-2.78752e-07
-2.19346e-06
-5.37175e-07
-2.2298e-06
-7.89612e-07
-2.2306e-06
-1.02191e-06
-2.18232e-06
-1.20305e-06
-2.07189e-06
-1.31966e-06
-1.78895e-06
-1.34704e-06
-1.18422e-06
-1.20552e-06
-3.8185e-07
-7.0677e-07
6.48999e-08
2.9269e-08
1.15812e-07
2.71921e-07
-2.29443e-07
-2.03906e-08
7.97372e-07
-8.40613e-08
8.97498e-07
-1.62426e-07
9.0468e-07
-2.55433e-07
9.16493e-07
-3.65196e-07
9.31767e-07
-4.94032e-07
9.43662e-07
-6.42562e-07
9.42627e-07
-8.10089e-07
9.17029e-07
-9.91216e-07
8.55004e-07
-1.17755e-06
7.43542e-07
-1.35728e-06
5.77195e-07
-1.52317e-06
3.64433e-07
-1.66533e-06
1.13328e-07
-1.77675e-06
-1.69294e-07
-1.84734e-06
-4.61048e-07
-1.87978e-06
-7.61764e-07
-1.8685e-06
-1.03206e-06
-1.83103e-06
-1.24625e-06
-1.76848e-06
-1.38648e-06
-1.6772e-06
-1.44384e-06
-1.45197e-06
-1.43754e-06
-8.92944e-07
-1.2704e-06
-2.0528e-07
-7.00029e-07
1.42342e-07
-8.75338e-08
-1.27032e-07
2.71505e-08
7.74799e-07
7.98953e-09
9.20344e-07
-2.89393e-08
9.44784e-07
-8.00137e-08
9.70906e-07
-1.4835e-07
1.00366e-06
-2.36336e-07
1.03523e-06
-3.45847e-07
1.05528e-06
-4.75654e-07
1.05063e-06
-6.22685e-07
1.00523e-06
-7.80353e-07
9.04242e-07
-9.39026e-07
7.42966e-07
-1.09678e-06
5.26249e-07
-1.23786e-06
2.58019e-07
-1.33253e-06
-6.91176e-08
-1.39923e-06
-3.94435e-07
-1.42588e-06
-7.33953e-07
-1.41241e-06
-1.04879e-06
-1.37242e-06
-1.29028e-06
-1.32473e-06
-1.44033e-06
-1.2787e-06
-1.49699e-06
-1.23356e-06
-1.49022e-06
-1.09574e-06
-1.42329e-06
-6.34657e-07
-1.16267e-06
-5.47346e-08
-7.12526e-07
-1.79382e-07
8.84041e-08
6.90499e-07
1.28016e-07
8.84126e-07
1.48805e-07
9.27514e-07
1.59831e-07
9.63678e-07
1.57095e-07
1.00908e-06
1.37739e-07
1.05796e-06
9.83328e-08
1.09799e-06
3.60487e-08
1.11565e-06
-5.76829e-08
1.10181e-06
-1.75422e-07
1.02627e-06
-3.1806e-07
8.84818e-07
-4.69426e-07
6.831e-07
-6.27028e-07
4.18704e-07
-7.61814e-07
6.74004e-08
-9.0205e-07
-2.53528e-07
-1.03688e-06
-5.99971e-07
-1.13352e-06
-9.54083e-07
-1.19373e-06
-1.23349e-06
-1.22676e-06
-1.4115e-06
-1.24732e-06
-1.48151e-06
-1.28052e-06
-1.46226e-06
-1.33837e-06
-1.36748e-06
-1.30073e-06
-1.20891e-06
-1.04955e-06
-9.56849e-07
-5.3923e-07
-6.87994e-07
1.29905e-07
5.66951e-07
2.13292e-07
8.04998e-07
2.7533e-07
8.68832e-07
3.28046e-07
9.12525e-07
3.72379e-07
9.68448e-07
4.0248e-07
1.02961e-06
4.16222e-07
1.08596e-06
4.08987e-07
1.12429e-06
3.77737e-07
1.13389e-06
3.17598e-07
1.08527e-06
2.28408e-07
9.77277e-07
1.2267e-07
7.86671e-07
2.00171e-08
5.20659e-07
-8.1508e-08
1.6661e-07
-1.71553e-07
-1.65813e-07
-3.08381e-07
-4.65014e-07
-4.26775e-07
-8.38052e-07
-5.15443e-07
-1.14756e-06
-5.75811e-07
-1.3542e-06
-6.02733e-07
-1.45718e-06
-6.01206e-07
-1.46524e-06
-5.95492e-07
-1.37558e-06
-5.56053e-07
-1.23894e-06
-4.3711e-07
-1.07117e-06
-8.23811e-07
-1.40247e-07
1.48465e-07
4.23288e-07
2.79272e-07
6.77255e-07
3.8582e-07
7.64146e-07
4.7931e-07
8.22614e-07
5.62667e-07
8.85294e-07
6.36552e-07
9.57055e-07
6.9729e-07
1.0257e-06
7.42162e-07
1.07936e-06
7.73023e-07
1.10271e-06
7.80118e-07
1.07836e-06
7.57866e-07
9.96192e-07
7.07431e-07
8.35706e-07
6.27329e-07
5.97257e-07
5.11386e-07
2.78002e-07
4.37938e-07
-9.77625e-08
3.58438e-07
-3.89447e-07
2.57678e-07
-7.40436e-07
1.61597e-07
-1.05431e-06
8.05328e-08
-1.27546e-06
2.06398e-08
-1.39861e-06
-1.23138e-08
-1.43234e-06
-1.05164e-08
-1.3729e-06
2.14278e-08
-1.26523e-06
9.01214e-08
-1.12849e-06
-9.82761e-07
2.60006e-07
1.32924e-07
2.96913e-07
3.04456e-07
5.09192e-07
4.67603e-07
6.036e-07
6.0424e-07
6.85632e-07
7.23984e-07
7.67156e-07
8.31443e-07
8.49269e-07
9.28695e-07
9.27546e-07
1.01623e-06
9.90832e-07
1.09168e-06
1.02609e-06
1.15097e-06
1.01684e-06
1.19104e-06
9.54671e-07
1.1987e-06
8.24696e-07
1.17035e-06
6.21903e-07
1.10099e-06
3.43094e-07
9.98881e-07
-7.60992e-11
9.26725e-07
-3.20579e-07
8.39004e-07
-6.55138e-07
7.36795e-07
-9.53928e-07
6.37733e-07
-1.17766e-06
5.52458e-07
-1.31382e-06
4.84542e-07
-1.36323e-06
4.50835e-07
-1.33653e-06
4.53005e-07
-1.26204e-06
5.06322e-07
-1.17354e-06
-1.09384e-06
6.23285e-07
8.63846e-08
2.13992e-07
2.63462e-07
3.3432e-07
4.88985e-07
3.78653e-07
6.9148e-07
4.84662e-07
8.51266e-07
6.05944e-07
9.8553e-07
7.13817e-07
1.10631e-06
8.05098e-07
1.21873e-06
8.76492e-07
1.32376e-06
9.19155e-07
1.41838e-06
9.20381e-07
1.49998e-06
8.70652e-07
1.55944e-06
7.6218e-07
1.58701e-06
5.91278e-07
1.57383e-06
3.5304e-07
1.51439e-06
5.61558e-08
1.44752e-06
-2.56238e-07
1.35637e-06
-5.65797e-07
1.24301e-06
-8.4184e-07
1.1227e-06
-1.05812e-06
1.01086e-06
-1.20201e-06
9.20616e-07
-1.27233e-06
8.63057e-07
-1.27707e-06
8.48361e-07
-1.24295e-06
8.82366e-07
-1.20489e-06
-1.17536e-06
9.68941e-07
2.61803e-08
1.92462e-07
1.44791e-07
2.18829e-07
3.9426e-07
1.30289e-07
6.87483e-07
1.89582e-07
9.22968e-07
3.7013e-07
1.09405e-06
5.40619e-07
1.23204e-06
6.64692e-07
1.35605e-06
7.50046e-07
1.47323e-06
7.99728e-07
1.58381e-06
8.07856e-07
1.68508e-06
7.66801e-07
1.77289e-06
6.72481e-07
1.83755e-06
5.24098e-07
1.86862e-06
3.19461e-07
1.85609e-06
6.62422e-08
1.80859e-06
-2.1071e-07
1.72742e-06
-4.86045e-07
1.61883e-06
-7.34221e-07
1.49719e-06
-9.37065e-07
1.37871e-06
-1.08368e-06
1.27832e-06
-1.17128e-06
1.21004e-06
-1.20732e-06
1.18576e-06
-1.218e-06
1.21419e-06
-1.22922e-06
-1.24659e-06
1.28685e-06
1.71227e-08
1.7437e-07
1.21907e-07
1.13655e-07
3.1512e-07
-6.40156e-08
5.92507e-07
-8.73708e-08
8.90355e-07
6.90419e-08
1.1263e-06
3.02519e-07
1.29651e-06
4.9171e-07
1.43132e-06
6.12549e-07
1.55079e-06
6.77852e-07
1.66235e-06
6.93955e-07
1.76757e-06
6.60329e-07
1.86288e-06
5.74779e-07
1.94482e-06
4.40414e-07
1.99733e-06
2.65118e-07
2.00958e-06
5.2276e-08
1.98542e-06
-1.87947e-07
1.92471e-06
-4.2636e-07
1.83429e-06
-6.44547e-07
1.72803e-06
-8.31277e-07
1.62077e-06
-9.76489e-07
1.52801e-06
-1.07833e-06
1.46662e-06
-1.14557e-06
1.45156e-06
-1.20067e-06
1.48368e-06
-1.26168e-06
-1.31479e-06
1.55385e-06
7.43549e-08
9.95127e-08
2.57195e-07
-6.99761e-08
4.27636e-07
-2.35283e-07
5.88672e-07
-2.52443e-07
8.12647e-07
-1.56053e-07
1.06924e-06
4.22769e-08
1.28151e-06
2.76292e-07
1.43795e-06
4.53073e-07
1.56145e-06
5.51895e-07
1.6694e-06
5.84273e-07
1.76812e-06
5.59258e-07
1.85884e-06
4.83286e-07
1.936e-06
3.61653e-07
1.99669e-06
2.0297e-07
2.02797e-06
1.9597e-08
2.02019e-06
-1.81312e-07
1.97996e-06
-3.87002e-07
1.91464e-06
-5.79872e-07
1.83293e-06
-7.50009e-07
1.74711e-06
-8.90921e-07
1.6749e-06
-1.00595e-06
1.63573e-06
-1.10578e-06
1.64073e-06
-1.20635e-06
1.6877e-06
-1.30681e-06
-1.38528e-06
1.75803e-06
1.24011e-07
-2.95684e-08
3.3566e-07
-2.84236e-07
5.00664e-07
-4.03084e-07
6.28918e-07
-3.81351e-07
7.66824e-07
-2.9883e-07
9.65703e-07
-1.60961e-07
1.18748e-06
5.02131e-08
1.36824e-06
2.68752e-07
1.50239e-06
4.14763e-07
1.60822e-06
4.7593e-07
1.70067e-06
4.65783e-07
1.78333e-06
3.97758e-07
1.85616e-06
2.87355e-07
1.91326e-06
1.44335e-07
1.95024e-06
-1.8801e-08
1.96121e-06
-1.93431e-07
1.9432e-06
-3.69873e-07
1.90104e-06
-5.38369e-07
1.84267e-06
-6.92122e-07
1.78181e-06
-8.30274e-07
1.7379e-06
-9.62143e-07
1.72952e-06
-1.09762e-06
1.76278e-06
-1.23856e-06
1.82335e-06
-1.36841e-06
-1.45581e-06
1.89442e-06
1.53223e-07
-1.8841e-07
3.06555e-07
-4.40662e-07
4.16533e-07
-5.15179e-07
5.30661e-07
-4.99902e-07
6.55485e-07
-4.28735e-07
8.14859e-07
-3.2638e-07
1.01873e-06
-1.60092e-07
1.21461e-06
6.78758e-08
1.36402e-06
2.61942e-07
1.47533e-06
3.61712e-07
1.56462e-06
3.72087e-07
1.64457e-06
3.16751e-07
1.71561e-06
2.13668e-07
1.77554e-06
8.2396e-08
1.81852e-06
-6.33434e-08
1.83953e-06
-2.15561e-07
1.83721e-06
-3.68366e-07
1.8153e-06
-5.17065e-07
1.78011e-06
-6.57356e-07
1.74596e-06
-7.96419e-07
1.73549e-06
-9.51768e-07
1.76415e-06
-1.12609e-06
1.82574e-06
-1.30104e-06
1.90198e-06
-1.44398e-06
-1.52973e-06
1.97531e-06
9.76233e-08
-2.90662e-07
1.4532e-07
-4.92373e-07
1.70075e-07
-5.44856e-07
2.2522e-07
-5.61375e-07
3.27315e-07
-5.36822e-07
4.71129e-07
-4.79646e-07
6.76379e-07
-3.74396e-07
9.13502e-07
-1.75464e-07
1.10832e-06
6.18265e-08
1.24271e-06
2.229e-07
1.34699e-06
2.66451e-07
1.43418e-06
2.24006e-07
1.51386e-06
1.31574e-07
1.58297e-06
1.10872e-08
1.6372e-06
-1.19233e-07
1.6718e-06
-2.51319e-07
1.68576e-06
-3.83107e-07
1.68014e-06
-5.11988e-07
1.66237e-06
-6.39972e-07
1.65641e-06
-7.90688e-07
1.68861e-06
-9.84128e-07
1.76304e-06
-1.20085e-06
1.85985e-06
-1.39746e-06
1.95426e-06
-1.53932e-06
-1.61211e-06
2.03658e-06
-3.22391e-08
-2.6623e-07
-1.00051e-07
-4.30457e-07
-1.63721e-07
-4.8726e-07
-1.93696e-07
-5.36336e-07
-1.7589e-07
-5.67036e-07
-1.08254e-07
-5.57661e-07
1.89419e-08
-5.1108e-07
2.59025e-07
-4.25843e-07
5.80176e-07
-2.66584e-07
8.16682e-07
-1.78808e-08
9.77238e-07
9.86748e-08
1.10678e-06
9.43783e-08
1.21747e-06
1.6947e-08
1.31387e-06
-8.82445e-08
1.39116e-06
-1.98382e-07
1.44641e-06
-3.07675e-07
1.47797e-06
-4.15331e-07
1.48525e-06
-5.19669e-07
1.49188e-06
-6.46864e-07
1.53901e-06
-8.38e-07
1.64175e-06
-1.08697e-06
1.77688e-06
-1.33594e-06
1.90964e-06
-1.53087e-06
2.02111e-06
-1.65065e-06
-1.70254e-06
2.11098e-06
-1.6488e-07
-1.03616e-07
-3.25471e-07
-2.72486e-07
-4.54411e-07
-3.60875e-07
-5.56803e-07
-4.41837e-07
-6.31336e-07
-4.95558e-07
-6.6973e-07
-5.26636e-07
-6.49184e-07
-5.39843e-07
-5.71311e-07
-5.11692e-07
-3.91459e-07
-4.54407e-07
-6.12034e-08
-3.5369e-07
2.72683e-07
-2.31089e-07
5.13147e-07
-1.54306e-07
7.05935e-07
-1.78189e-07
8.68673e-07
-2.52907e-07
1.00725e-06
-3.38054e-07
1.11223e-06
-4.13169e-07
1.17795e-06
-4.81213e-07
1.22728e-06
-5.69033e-07
1.31654e-06
-7.36131e-07
1.47448e-06
-9.95941e-07
1.66996e-06
-1.28247e-06
1.85414e-06
-1.52032e-06
2.0008e-06
-1.67741e-06
2.10934e-06
-1.75982e-06
-1.78832e-06
2.19491e-06
-2.56417e-07
1.49345e-07
-4.78261e-07
-5.23097e-08
-6.58711e-07
-1.83479e-07
-8.09369e-07
-2.88933e-07
-9.32216e-07
-3.76457e-07
-1.01462e-06
-4.44919e-07
-1.05127e-06
-5.03607e-07
-1.02612e-06
-5.37025e-07
-9.4265e-07
-5.36726e-07
-7.9033e-07
-5.0202e-07
-5.92635e-07
-4.35953e-07
-3.15934e-07
-4.2564e-07
6.19376e-09
-5.02139e-07
3.12448e-07
-5.59568e-07
5.64993e-07
-5.90469e-07
7.49839e-07
-5.97621e-07
8.93905e-07
-6.24821e-07
1.06307e-06
-7.37817e-07
1.29738e-06
-9.70206e-07
1.56236e-06
-1.2608e-06
1.79827e-06
-1.51833e-06
1.97505e-06
-1.69706e-06
2.09592e-06
-1.79864e-06
2.18057e-06
-1.84447e-06
-1.85762e-06
2.24947e-06
-2.61654e-07
4.14462e-07
-5.24453e-07
2.12378e-07
-7.42024e-07
3.85046e-08
-9.16795e-07
-1.1425e-07
-1.03954e-06
-2.49635e-07
-1.10791e-06
-3.73054e-07
-1.12929e-06
-4.78596e-07
-1.10685e-06
-5.55439e-07
-1.02961e-06
-6.10729e-07
-8.73267e-07
-6.56093e-07
-6.08926e-07
-6.9362e-07
-2.9678e-07
-7.38293e-07
-1.20683e-08
-7.83534e-07
2.52641e-07
-8.22051e-07
4.82111e-07
-8.18507e-07
6.82853e-07
-7.97244e-07
9.04012e-07
-8.45129e-07
1.18188e-06
-1.01511e-06
1.4832e-06
-1.27119e-06
1.74469e-06
-1.5221e-06
1.93415e-06
-1.7077e-06
2.05709e-06
-1.82004e-06
2.13632e-06
-1.87778e-06
2.19467e-06
-1.9032e-06
-1.91202e-06
2.24895e-06
-2.08727e-07
6.28681e-07
-4.61755e-07
4.71741e-07
-6.98004e-07
2.7848e-07
-8.77732e-07
7.27404e-08
-9.9412e-07
-1.25286e-07
-1.05609e-06
-3.04474e-07
-1.06434e-06
-4.63701e-07
-1.00887e-06
-6.04863e-07
-8.89898e-07
-7.23882e-07
-7.113e-07
-8.28004e-07
-4.70592e-07
-9.31773e-07
-1.85773e-07
-1.01628e-06
1.01115e-07
-1.06582e-06
3.52268e-07
-1.07014e-06
5.80306e-07
-1.04458e-06
8.24252e-07
-1.03983e-06
1.10846e-06
-1.1284e-06
1.40974e-06
-1.31579e-06
1.67212e-06
-1.53318e-06
1.86233e-06
-1.71208e-06
1.98425e-06
-1.82948e-06
2.06032e-06
-1.896e-06
2.11374e-06
-1.93139e-06
2.16156e-06
-1.95094e-06
-1.96396e-06
2.21324e-06
-1.63904e-07
7.98563e-07
-3.623e-07
6.75667e-07
-5.63016e-07
4.88913e-07
-7.29097e-07
2.51741e-07
-8.34077e-07
-1.26256e-08
-8.7971e-07
-2.48201e-07
-8.67271e-07
-4.67453e-07
-8.05486e-07
-6.58833e-07
-7.04422e-07
-8.17992e-07
-5.5475e-07
-9.72001e-07
-3.38797e-07
-1.14017e-06
-7.16951e-08
-1.27766e-06
2.00696e-07
-1.3335e-06
4.59622e-07
-1.32591e-06
7.19573e-07
-1.30243e-06
1.00192e-06
-1.32074e-06
1.29418e-06
-1.41968e-06
1.5538e-06
-1.57474e-06
1.74838e-06
-1.72732e-06
1.87691e-06
-1.84031e-06
1.95841e-06
-1.91079e-06
2.01502e-06
-1.95258e-06
2.06377e-06
-1.97998e-06
2.11472e-06
-2.00215e-06
-2.02284e-06
2.17358e-06
-1.23648e-07
9.29647e-07
-2.62638e-07
8.23464e-07
-4.01552e-07
6.38051e-07
-5.23978e-07
3.80848e-07
-5.86846e-07
6.91066e-08
-6.21904e-07
-2.03591e-07
-6.08949e-07
-4.71685e-07
-5.63035e-07
-6.9731e-07
-4.92758e-07
-8.81564e-07
-3.78327e-07
-1.07985e-06
-1.87451e-07
-1.32524e-06
6.06164e-08
-1.52067e-06
3.21033e-07
-1.58942e-06
5.86012e-07
-1.58797e-06
8.59737e-07
-1.57421e-06
1.13836e-06
-1.59801e-06
1.39468e-06
-1.67505e-06
1.5986e-06
-1.77799e-06
1.7415e-06
-1.86975e-06
1.8358e-06
-1.9343e-06
1.90142e-06
-1.97621e-06
1.95566e-06
-2.00666e-06
2.00964e-06
-2.03408e-06
2.0694e-06
-2.06178e-06
-2.09052e-06
2.13689e-06
-7.87521e-08
1.01273e-06
-1.643e-07
9.13581e-07
-2.41371e-07
7.20081e-07
-2.99754e-07
4.58243e-07
-3.00343e-07
7.51981e-08
-3.26992e-07
-1.66056e-07
-3.10091e-07
-4.80821e-07
-2.67525e-07
-7.33576e-07
-2.22375e-07
-9.2085e-07
-1.48359e-07
-1.1486e-06
9.14179e-09
-1.47854e-06
2.28486e-07
-1.73504e-06
4.71659e-07
-1.82977e-06
7.24778e-07
-1.83896e-06
9.80524e-07
-1.8284e-06
1.22358e-06
-1.83991e-06
1.43049e-06
-1.88109e-06
1.58644e-06
-1.93328e-06
1.69497e-06
-1.97781e-06
1.77175e-06
-2.01072e-06
1.83374e-06
-2.03798e-06
1.89298e-06
-2.06583e-06
1.95574e-06
-2.09665e-06
2.0238e-06
-2.13005e-06
-2.16429e-06
2.0976e-06
-2.58243e-08
1.04175e-06
-6.62223e-08
9.57334e-07
-8.57668e-08
7.46996e-07
-9.56232e-08
4.64508e-07
-4.61316e-09
9.16124e-09
-2.61271e-08
-1.37727e-07
8.66111e-09
-5.11105e-07
6.3255e-08
-7.83971e-07
9.00862e-08
-9.44181e-07
1.18952e-07
-1.17433e-06
2.30504e-07
-1.58608e-06
4.13878e-07
-1.91695e-06
6.30504e-07
-2.04422e-06
8.54395e-07
-2.0613e-06
1.07157e-06
-2.04439e-06
1.26643e-06
-2.03383e-06
1.42433e-06
-2.03823e-06
1.54187e-06
-2.05023e-06
1.62869e-06
-2.06416e-06
1.69941e-06
-2.08111e-06
1.7657e-06
-2.10403e-06
1.83352e-06
-2.13349e-06
1.90444e-06
-2.16768e-06
1.9785e-06
-2.20393e-06
-2.24097e-06
2.05501e-06
3.95647e-08
1.00147e-06
3.54365e-08
9.60187e-07
4.41965e-08
7.33875e-07
8.69089e-08
4.35773e-07
1.54804e-07
-6.68652e-08
1.94457e-07
-1.75964e-07
2.49129e-07
-5.65615e-07
3.13505e-07
-8.48447e-07
3.46496e-07
-9.76419e-07
3.64119e-07
-1.19052e-06
4.4642e-07
-1.66835e-06
6.02462e-07
-2.07095e-06
7.8362e-07
-2.22455e-06
9.65114e-07
-2.24197e-06
1.13316e-06
-2.21169e-06
1.27734e-06
-2.17735e-06
1.39292e-06
-2.15321e-06
1.48437e-06
-2.14118e-06
1.56203e-06
-2.14142e-06
1.63525e-06
-2.15402e-06
1.70879e-06
-2.17737e-06
1.78354e-06
-2.20818e-06
1.85904e-06
-2.24297e-06
1.93463e-06
-2.27973e-06
-2.3173e-06
2.01101e-06
1.00486e-07
8.95476e-07
1.33559e-07
9.2345e-07
1.67255e-07
6.9845e-07
2.21823e-07
3.68918e-07
2.13404e-07
-6.19476e-08
3.21044e-07
-2.9029e-07
4.0542e-07
-6.5428e-07
4.80712e-07
-9.26573e-07
5.36021e-07
-1.03379e-06
5.69328e-07
-1.22513e-06
6.50085e-07
-1.74832e-06
7.82388e-07
-2.20389e-06
9.2168e-07
-2.36351e-06
1.05313e-06
-2.37308e-06
1.17019e-06
-2.32835e-06
1.27057e-06
-2.2773e-06
1.35688e-06
-2.23911e-06
1.43535e-06
-2.21926e-06
1.5118e-06
-2.21753e-06
1.58881e-06
-2.23077e-06
1.66609e-06
-2.25447e-06
1.74247e-06
-2.28443e-06
1.81728e-06
-2.31791e-06
1.89117e-06
-2.35342e-06
-2.39111e-06
1.96482e-06
1.43112e-07
7.47057e-07
2.14922e-07
8.46036e-07
2.61311e-07
6.42661e-07
3.1277e-07
3.10663e-07
3.38617e-07
-1.02407e-07
4.61805e-07
-4.23064e-07
5.68474e-07
-7.6722e-07
6.44793e-07
-1.00772e-06
6.99422e-07
-1.09173e-06
7.43491e-07
-1.27088e-06
8.32222e-07
-1.83887e-06
9.42371e-07
-2.31413e-06
1.036e-06
-2.45747e-06
1.11846e-06
-2.4556e-06
1.19268e-06
-2.40247e-06
1.26265e-06
-2.34707e-06
1.33261e-06
-2.30881e-06
1.40524e-06
-2.29163e-06
1.48062e-06
-2.29266e-06
1.55688e-06
-2.30682e-06
1.63195e-06
-2.32941e-06
1.70478e-06
-2.35724e-06
1.77569e-06
-2.38864e-06
1.84536e-06
-2.42332e-06
-2.461e-06
1.91531e-06
1.67417e-07
5.68593e-07
2.87008e-07
7.19239e-07
3.63561e-07
5.59432e-07
4.31557e-07
2.2992e-07
5.06111e-07
-1.90433e-07
6.32106e-07
-5.57266e-07
7.35665e-07
-8.77262e-07
7.90975e-07
-1.06814e-06
8.22235e-07
-1.12714e-06
8.79279e-07
-1.33073e-06
9.84878e-07
-1.94548e-06
1.07112e-06
-2.40158e-06
1.12324e-06
-2.51022e-06
1.16607e-06
-2.49878e-06
1.21075e-06
-2.44726e-06
1.26269e-06
-2.39898e-06
1.32318e-06
-2.36918e-06
1.39029e-06
-2.35857e-06
1.46056e-06
-2.36275e-06
1.53088e-06
-2.377e-06
1.59955e-06
-2.39799e-06
1.66635e-06
-2.42396e-06
1.73179e-06
-2.45425e-06
1.79707e-06
-2.48842e-06
-2.52681e-06
1.8627e-06
1.6556e-07
3.97231e-07
3.48596e-07
5.31364e-07
4.67847e-07
4.33278e-07
5.60689e-07
1.26508e-07
6.65463e-07
-3.01676e-07
7.71592e-07
-6.70913e-07
8.37505e-07
-9.48923e-07
8.57516e-07
-1.09315e-06
8.76447e-07
-1.14991e-06
9.73231e-07
-1.4299e-06
1.10147e-06
-2.07547e-06
1.16415e-06
-2.46529e-06
1.1841e-06
-2.53087e-06
1.20085e-06
-2.51596e-06
1.22813e-06
-2.47479e-06
1.26916e-06
-2.4401e-06
1.32148e-06
-2.42149e-06
1.38056e-06
-2.41757e-06
1.44228e-06
-2.42438e-06
1.50416e-06
-2.43879e-06
1.5653e-06
-2.45908e-06
1.62576e-06
-2.48447e-06
1.68617e-06
-2.51451e-06
1.74673e-06
-2.54927e-06
-2.58828e-06
1.80824e-06
1.22705e-07
2.66109e-07
3.54818e-07
2.95149e-07
5.11171e-07
2.71864e-07
6.16267e-07
1.79369e-08
7.06003e-07
-3.98905e-07
7.78418e-07
-7.47508e-07
8.16433e-07
-9.91136e-07
8.25995e-07
-1.10651e-06
8.71548e-07
-1.19866e-06
1.03952e-06
-1.59988e-06
1.18379e-06
-2.22104e-06
1.22032e-06
-2.50266e-06
1.22038e-06
-2.53169e-06
1.22363e-06
-2.5197e-06
1.24149e-06
-2.49295e-06
1.27441e-06
-2.47316e-06
1.31811e-06
-2.46525e-06
1.36791e-06
-2.46736e-06
1.42054e-06
-2.47696e-06
1.47435e-06
-2.49257e-06
1.52878e-06
-2.5135e-06
1.58376e-06
-2.53943e-06
1.63923e-06
-2.57022e-06
1.69555e-06
-2.60545e-06
-2.64538e-06
1.75243e-06
5.43202e-08
2.09696e-07
2.56843e-07
8.97197e-08
3.27188e-07
1.98833e-07
4.00512e-07
-6.19558e-08
4.85598e-07
-4.84764e-07
5.7196e-07
-8.36687e-07
6.381e-07
-1.05998e-06
7.03223e-07
-1.17429e-06
8.56004e-07
-1.35344e-06
1.09591e-06
-1.84116e-06
1.22674e-06
-2.35264e-06
1.23857e-06
-2.51541e-06
1.23261e-06
-2.52623e-06
1.23179e-06
-2.51926e-06
1.24494e-06
-2.50636e-06
1.27153e-06
-2.49992e-06
1.30754e-06
-2.50135e-06
1.3493e-06
-2.50914e-06
1.39448e-06
-2.52215e-06
1.44186e-06
-2.53995e-06
1.49078e-06
-2.56245e-06
1.5408e-06
-2.58957e-06
1.59181e-06
-2.62113e-06
1.64331e-06
-2.65728e-06
-2.69766e-06
1.69559e-06
-2.58734e-08
2.32059e-07
-6.1103e-08
1.23706e-07
-1.45391e-07
2.78165e-07
-4.77603e-08
-1.56996e-07
1.21518e-07
-6.55848e-07
2.92198e-07
-1.00803e-06
4.45263e-07
-1.21396e-06
6.26893e-07
-1.35695e-06
9.03864e-07
-1.63127e-06
1.15709e-06
-2.09488e-06
1.24077e-06
-2.43698e-06
1.23579e-06
-2.51062e-06
1.22731e-06
-2.51812e-06
1.2251e-06
-2.51734e-06
1.23603e-06
-2.5175e-06
1.25856e-06
-2.52261e-06
1.28925e-06
-2.53214e-06
1.32534e-06
-2.5453e-06
1.36512e-06
-2.56195e-06
1.40748e-06
-2.58234e-06