/*--------------------------------*- C++ -*----------------------------------*\
  =========                 |
  \\      /  F ield         | OpenFOAM: The Open Source CFD Toolbox
   \\    /   O peration     | Website:  https://openfoam.org
    \\  /    A nd           | Version:  13
     \\/     M anipulation  |
\*---------------------------------------------------------------------------*/
FoamFile
{
    format      ascii;
    class       volVectorField;
    location    "17";
    object      U;
}
// * * * * * * * * * * * * * * * * * * * * * * * * * * * * * * * * * * * * * //

dimensions      [0 1 -1 0 0 0 0];

internalField   nonuniform List<vector> 
6440
(
(-0.0207443 0.0213854 0)
(-0.0050036 -0.0109585 0)
(0.083607 -0.0778354 -7.19124e-16)
(0.192446 -0.115601 4.38252e-16)
(0.326364 -0.127161 0)
(0.453651 -0.122281 -5.10185e-16)
(0.567554 -0.111254 4.35675e-16)
(0.668321 -0.0996525 0)
(0.756301 -0.0887194 0)
(0.83156 -0.0786048 0)
(0.893814 -0.0683288 6.22751e-16)
(0.941698 -0.0566726 -1.20283e-15)
(0.974741 -0.0420279 5.90155e-16)
(0.991442 -0.0293179 0)
(0.989976 -0.0127493 -1.17738e-15)
(0.970033 0.00512155 1.19746e-15)
(0.930105 0.0289034 0)
(0.868747 0.0506647 0)
(0.785957 0.0728537 0)
(0.681642 0.0941499 0)
(0.556357 0.110744 -1.93187e-15)
(0.409748 0.112737 4.89631e-15)
(0.254806 0.0942043 -3.38267e-15)
(0.124217 0.0624498 -5.15973e-15)
(0.0358086 0.035642 7.38322e-15)
(-0.00453483 0.0351035 0)
(0.0718129 -0.104024 0)
(0.180587 -0.245984 -3.5853e-16)
(0.292926 -0.301833 2.70537e-16)
(0.401056 -0.299933 0)
(0.503982 -0.274141 -4.04693e-16)
(0.602261 -0.242294 7.3416e-16)
(0.695637 -0.211192 -3.37742e-16)
(0.78305 -0.181354 0)
(0.863385 -0.151632 0)
(0.935235 -0.120385 0)
(0.996922 -0.086415 -5.51708e-16)
(1.04696 -0.0490329 5.43853e-16)
(1.0811 -0.00752305 5.44329e-16)
(1.10447 0.0370278 -5.37249e-16)
(1.09749 0.0832124 0)
(1.07645 0.128988 0)
(1.03818 0.17369 0)
(0.979653 0.216093 0)
(0.899726 0.254354 0)
(0.801404 0.285232 -1.30384e-15)
(0.685762 0.301492 1.48116e-15)
(0.53461 0.291776 0)
(0.356612 0.249297 -2.48669e-15)
(0.142948 0.185352 7.83289e-15)
(0.0185905 -0.000192662 0)
(0.126227 -0.258138 0)
(0.228704 -0.410413 0)
(0.317675 -0.443604 0)
(0.3995 -0.425149 0)
(0.480549 -0.393103 0)
(0.563115 -0.359955 3.43311e-16)
(0.646573 -0.327643 -3.21656e-16)
(0.729222 -0.294499 0)
(0.809008 -0.258281 0)
(0.883553 -0.216886 0)
(0.950398 -0.168803 0)
(1.00658 -0.113073 0)
(1.04883 -0.0497526 5.48311e-16)
(1.07395 0.020803 -1.63924e-15)
(1.07987 0.0962963 1.05818e-15)
(1.06625 0.172715 0)
(1.03464 0.247106 0)
(0.987007 0.317343 0)
(0.923544 0.381499 0)
(0.844364 0.436754 0)
(0.748049 0.478236 0)
(0.622375 0.495588 1.46022e-15)
(0.461442 0.471957 -1.82302e-15)
(0.212676 0.384276 2.53244e-15)
(0.045389 -0.116783 0)
(0.149518 -0.43277 0)
(0.228375 -0.540278 -2.21926e-16)
(0.292306 -0.543614 2.01758e-16)
(0.355139 -0.51913 0)
(0.423584 -0.490563 -3.55587e-16)
(0.498287 -0.461617 3.34075e-16)
(0.577775 -0.430881 0)
(0.660104 -0.395795 5.92527e-16)
(0.743238 -0.353452 -5.65218e-16)
(0.824469 -0.301136 5.44882e-16)
(0.900362 -0.236818 -1.07002e-15)
(0.966658 -0.15968 5.36388e-16)
(1.01867 -0.0702223 0)
(1.05121 0.0289695 0)
(1.06032 0.132161 0)
(1.04577 0.234539 1.03242e-15)
(1.00987 0.332118 2.17256e-19)
(0.957657 0.422613 -1.04284e-15)
(0.893453 0.504756 0)
(0.818909 0.577498 0)
(0.733723 0.63823 1.20005e-15)
(0.628889 0.67989 -1.31902e-15)
(0.502006 0.679264 -1.54361e-15)
(0.262029 0.615574 3.89094e-15)
(0.0624969 -0.290972 0)
(0.13926 -0.575185 0)
(0.19196 -0.62823 -2.11224e-16)
(0.236607 -0.619023 1.98953e-16)
(0.286168 -0.601038 0)
(0.344428 -0.581384 -3.5626e-16)
(0.410845 -0.559466 3.35266e-16)
(0.484926 -0.533507 0)
(0.566064 -0.500152 5.93221e-16)
(0.652514 -0.455096 -5.64312e-16)
(0.741052 -0.393473 5.43448e-16)
(0.827 -0.312514 -1.06993e-15)
(0.904546 -0.211187 5.40913e-16)
(0.966703 -0.0913082 0)
(1.0072 0.0412103 1.15927e-15)
(1.02016 0.175595 -1.07941e-15)
(1.00657 0.305029 1.03635e-15)
(0.969348 0.424797 2.99956e-19)
(0.914223 0.533014 -1.03298e-15)
(0.846723 0.628814 0)
(0.771291 0.711993 1.10427e-15)
(0.691748 0.78254 4.88048e-19)
(0.60306 0.837534 -1.24692e-15)
(0.509934 0.852786 -1.39692e-15)
(0.290797 0.78241 1.66783e-15)
(0.0560426 -0.442494 0)
(0.1041 -0.660333 0)
(0.133899 -0.684492 -2.14013e-16)
(0.161791 -0.679423 2.05526e-16)
(0.196843 -0.67341 0)
(0.241144 -0.664232 -3.7202e-16)
(0.295405 -0.653998 3.50325e-16)
(0.360773 -0.63846 0)
(0.437502 -0.613274 6.13592e-16)
(0.524468 -0.569903 -5.81024e-16)
(0.618724 -0.502138 5.58257e-16)
(0.713817 -0.40529 -1.10207e-15)
(0.801947 -0.276217 5.65362e-16)
(0.870917 -0.11793 0)
(0.91398 0.0583389 -1.27691e-15)
(0.926486 0.230446 1.15848e-15)
(0.915253 0.387622 1.09013e-15)
(0.884499 0.526014 4.22921e-19)
(0.836677 0.6467 -1.05954e-15)
(0.774512 0.750379 0)
(0.703672 0.83749 -1.11138e-15)
(0.632871 0.90971 2.30946e-15)
(0.561895 0.968245 -1.21288e-15)
(0.501317 0.988536 -1.31339e-15)
(0.30284 0.879592 1.54049e-15)
(0.0366091 -0.540348 0)
(0.0553815 -0.703872 0)
(0.0612056 -0.713461 -2.28549e-16)
(0.0685237 -0.715849 2.23671e-16)
(0.0835545 -0.718213 0)
(0.107766 -0.727127 -4.11657e-16)
(0.143349 -0.734859 3.8702e-16)
(0.192634 -0.736423 0)
(0.256765 -0.725174 6.70321e-16)
(0.336848 -0.690484 -6.31565e-16)
(0.432144 -0.624229 6.04429e-16)
(0.534838 -0.516943 -1.19738e-15)
(0.636704 -0.359031 6.29378e-16)
(0.714644 -0.15799 0)
(0.75375 0.0668956 0)
(0.760261 0.284341 0)
(0.752025 0.473413 1.23926e-15)
(0.737308 0.627924 6.39796e-19)
(0.710778 0.754397 -1.14658e-15)
(0.667472 0.858863 0)
(0.612453 0.944264 0)
(0.559495 1.01318 1.17794e-15)
(0.510909 1.06813 -1.20801e-15)
(0.480655 1.08089 -1.27957e-15)
(0.303631 0.922959 1.50082e-15)
(0.0113936 -0.58027 0)
(-0.000126292 -0.692057 0)
(-0.0224847 -0.703331 -2.57657e-16)
(-0.0423387 -0.717148 2.54054e-16)
(-0.0548878 -0.732028 0)
(-0.0588668 -0.754359 -4.916e-16)
(-0.0516909 -0.778256 4.7188e-16)
(-0.0307714 -0.798528 0)
(0.00799667 -0.80447 8.0696e-16)
(0.0690092 -0.785869 -7.54832e-16)
(0.156013 -0.728893 7.20167e-16)
(0.263687 -0.615059 -1.43011e-15)
(0.394871 -0.415068 7.7926e-16)
(0.517601 -0.157487 0)
(0.557755 0.0870317 0)
(0.544578 0.327171 0)
(0.535341 0.540801 1.5544e-15)
(0.543362 0.708163 9.96468e-19)
(0.548183 0.836597 -1.31165e-15)
(0.532936 0.938905 0)
(0.50281 1.02103 0)
(0.474724 1.08556 1.23313e-15)
(0.45307 1.13415 -1.23901e-15)
(0.453954 1.14086 -1.25368e-15)
(0.291163 0.914115 3.00785e-15)
(-0.0171674 -0.563668 0)
(-0.0616158 -0.635222 0)
(-0.115868 -0.648015 0)
(-0.168728 -0.667325 0)
(-0.216126 -0.694691 4.0196e-16)
(-0.256867 -0.729345 -3.76011e-16)
(-0.288276 -0.768721 3.54807e-16)
(-0.306784 -0.807926 -3.41085e-16)
(-0.306321 -0.836312 6.72019e-16)
(-0.27841 -0.829715 -1.54492e-18)
(-0.215546 -0.791321 -1.80564e-18)
(-0.112169 -0.666245 -9.29134e-16)
(0.059964 -0.398543 -1.20932e-15)
(0.309171 -0.0182851 3.93957e-15)
(0.411674 0.216153 -5.52521e-15)
(0.358453 0.403493 2.6282e-15)
(0.316003 0.599976 0)
(0.341833 0.76357 1.79541e-15)
(0.378067 0.886361 -1.58578e-15)
(0.389962 0.984151 1.45979e-15)
(0.386149 1.06344 1.11747e-18)
(0.387214 1.12361 8.43347e-19)
(0.391534 1.16986 -1.20359e-15)
(0.419916 1.14587 0)
(0.268269 0.855447 -1.54183e-15)
(-0.0440788 -0.486651 0)
(-0.126755 -0.532726 0)
(-0.212925 -0.551872 0)
(-0.299154 -0.579306 0)
(-0.381407 -0.615784 -3.49589e-16)
(-0.459014 -0.661073 3.14622e-16)
(-0.530352 -0.712973 -2.85694e-16)
(-0.592775 -0.767075 2.63603e-16)
(-0.64084 -0.814814 0)
(-0.664026 -0.836042 -4.75274e-16)
(-0.648072 -0.815459 1.22019e-18)
(-0.572057 -0.703003 5.10658e-16)
(-0.392093 -0.446315 0)
(-0.0695698 -0.0185355 -1.02275e-15)
(0.207565 0.364566 5.98642e-15)
(0.181904 0.489529 -2.61931e-15)
(0.119481 0.6252 1.99374e-15)
(0.15706 0.773493 -1.67217e-15)
(0.221682 0.895341 0)
(0.260597 0.98998 -1.36373e-15)
(0.281584 1.06739 2.5244e-15)
(0.305461 1.12719 -2.36045e-15)
(0.332072 1.15835 1.1333e-15)
(0.37806 1.11544 0)
(0.232089 0.751987 -1.65189e-15)
(-0.0666965 -0.346987 0)
(-0.19038 -0.39592 0)
(-0.308545 -0.421576 0)
(-0.427046 -0.455655 0)
(-0.542702 -0.498923 3.22672e-16)
(-0.65614 -0.551675 -2.81509e-16)
(-0.766837 -0.612588 2.48482e-16)
(-0.872661 -0.678089 -2.22998e-16)
(-0.968263 -0.74064 4.04965e-16)
(-1.04299 -0.786606 -9.22169e-19)
(-1.07997 -0.793392 -3.60243e-16)
(-1.0537 -0.740155 0)
(-0.921978 -0.559727 -3.8641e-16)
(-0.633948 -0.212129 9.66828e-16)
(-0.222292 0.258679 -2.38865e-15)
(0.00455941 0.561525 1.97003e-15)
(-0.00500707 0.664214 0)
(0.00842364 0.747628 1.47525e-15)
(0.0806567 0.859729 -1.35382e-15)
(0.146689 0.963942 1.2663e-15)
(0.192529 1.04263 1.0266e-18)
(0.235349 1.10221 -1.13026e-15)
(0.27623 1.1303 0)
(0.326756 1.06083 0)
(0.186052 0.606536 0)
(-0.0891709 -0.190878 0)
(-0.24962 -0.234851 0)
(-0.396102 -0.265752 2.3998e-16)
(-0.542684 -0.30418 -1.90825e-16)
(-0.687783 -0.351232 0)
(-0.833245 -0.407866 2.66517e-16)
(-0.979403 -0.473921 -4.60329e-16)
(-1.12474 -0.547477 2.01939e-16)
(-1.26453 -0.623751 0)
(-1.3895 -0.693799 0)
(-1.48383 -0.742648 0)
(-1.52285 -0.741639 2.86379e-16)
(-1.46918 -0.672257 -2.87347e-16)
(-1.27194 -0.472424 -3.11802e-16)
(-0.890804 -0.112712 -3.91367e-16)
(-0.382492 0.363236 1.16667e-15)
(-0.096906 0.69194 1.53013e-15)
(-0.0709477 0.748499 -1.41289e-15)
(-0.0234703 0.802512 0)
(0.0454748 0.903848 0)
(0.114714 0.995405 1.16533e-15)
(0.1732 1.05677 -1.10924e-15)
(0.225909 1.07659 0)
(0.273002 0.981073 1.17803e-15)
(0.13031 0.421077 -4.36691e-15)
(-0.109858 -0.0279828 0)
(-0.296666 -0.0583744 0)
(-0.464676 -0.0931287 -2.66279e-16)
(-0.633261 -0.134053 2.06855e-16)
(-0.802101 -0.181783 3.26419e-16)
(-0.973512 -0.238547 -5.36309e-16)
(-1.1485 -0.305454 4.51879e-16)
(-1.32623 -0.382413 -1.94201e-16)
(-1.50308 -0.46749 0)
(-1.67161 -0.55592 2.99806e-16)
(-1.81928 -0.638723 -2.71155e-16)
(-1.92588 -0.701314 -2.49703e-16)
(-1.96122 -0.714489 3.95817e-19)
(-1.88303 -0.66238 4.76454e-16)
(-1.63899 -0.492223 -7.69223e-16)
(-1.17736 -0.148706 6.30609e-16)
(-0.529916 0.357741 0)
(-0.0758094 0.761749 0)
(-0.0741835 0.777395 0)
(-0.0285328 0.828603 1.23607e-15)
(0.0421243 0.920802 -1.17823e-15)
(0.116686 0.989515 0)
(0.179048 1.00484 0)
(0.218697 0.876709 -1.23256e-15)
(0.0725498 0.211078 -6.08513e-19)
(-0.119794 0.15218 0)
(-0.321599 0.133394 0)
(-0.50496 0.0948608 2.37916e-16)
(-0.687466 0.0525435 -1.92279e-16)
(-0.870324 0.00467943 -3.13336e-16)
(-1.05811 -0.0508947 5.28911e-16)
(-1.25262 -0.116456 -4.56742e-16)
(-1.45326 -0.193304 1.98615e-16)
(-1.65676 -0.2818 0)
(-1.85698 -0.381352 -2.94902e-16)
(-2.04423 -0.487974 2.61157e-16)
(-2.20454 -0.593081 2.34517e-16)
(-2.3173 -0.683478 -2.1631e-16)
(-2.35288 -0.739201 -2.05141e-16)
(-2.27085 -0.717404 -2.03209e-16)
(-2.00617 -0.599629 4.30117e-16)
(-1.4874 -0.276638 5.16137e-16)
(-0.692202 0.28508 -7.72611e-16)
(-0.0479949 0.776748 0)
(-0.0705979 0.772472 -1.25193e-15)
(-0.0193052 0.828233 2.44912e-15)
(0.0652674 0.904423 -1.17407e-15)
(0.139952 0.916811 0)
(0.173104 0.757855 1.3118e-15)
(0.0167182 -0.00616992 -3.67292e-15)
(-0.112679 0.327708 1.54699e-16)
(-0.301112 0.329334 1.17351e-16)
(-0.481435 0.291378 -1.90459e-16)
(-0.666315 0.251035 3.19439e-16)
(-0.857486 0.205587 -2.93961e-19)
(-1.05793 0.152283 -2.4148e-16)
(-1.26709 0.088995 2.15449e-16)
(-1.4825 0.0137965 1.93101e-16)
(-1.70167 -0.0760175 -3.43429e-16)
(-1.91987 -0.182449 3.08184e-16)
(-2.12842 -0.303711 -2.68397e-16)
(-2.31813 -0.436435 0)
(-2.47757 -0.573387 -2.11646e-16)
(-2.58792 -0.702054 3.89161e-16)
(-2.61541 -0.803265 -1.83762e-16)
(-2.55612 -0.838612 3.60884e-16)
(-2.31258 -0.760962 -3.75581e-16)
(-1.77094 -0.448306 0)
(-0.841635 0.17895 0)
(-0.0283785 0.739305 1.15444e-15)
(-0.0474536 0.744261 1.20336e-18)
(0.0311451 0.797025 -1.25758e-15)
(0.114458 0.818688 0)
(0.141491 0.634608 0)
(-0.0326113 -0.203191 -5.34531e-15)
(-0.0949546 0.52416 0)
(-0.251316 0.512769 0)
(-0.412853 0.480819 0)
(-0.582866 0.447657 0)
(-0.764207 0.410167 0)
(-0.959823 0.364587 0)
(-1.17012 0.306968 0)
(-1.39299 0.233671 0)
(-1.62293 0.142348 3.30142e-16)
(-1.85089 0.0314136 -3.11448e-16)
(-2.0692 -0.100668 0)
(-2.27056 -0.252859 0)
(-2.44974 -0.42071 0)
(-2.60135 -0.596784 0)
(-2.70986 -0.766486 0)
(-2.73053 -0.908246 0)
(-2.67939 -0.990129 -3.35406e-16)
(-2.48803 -0.93984 6.93401e-16)
(-1.94484 -0.623748 -8.11122e-16)
(-0.951213 0.0728462 6.39191e-16)
(-0.00545558 0.688432 1.17073e-15)
(0.0393757 0.711169 -1.36412e-15)
(0.103504 0.707778 -1.36827e-15)
(0.127485 0.533112 1.60804e-15)
(-0.0455101 -0.334624 -7.85873e-15)
(-0.0664612 0.665351 0)
(-0.185067 0.670331 0)
(-0.318409 0.647156 1.53791e-16)
(-0.461627 0.625168 -1.34976e-16)
(-0.618907 0.600728 0)
(-0.79408 0.568815 2.11268e-16)
(-0.988798 0.523608 -3.79341e-16)
(-1.20128 0.459453 1.72582e-16)
(-1.42637 0.3711 3.18134e-16)
(-1.65486 0.255251 -3.00824e-16)
(-1.87464 0.111289 -2.90043e-16)
(-2.07837 -0.0598482 5.54595e-16)
(-2.26296 -0.252893 -2.45995e-16)
(-2.42964 -0.462029 -2.13969e-16)
(-2.5747 -0.677367 -1.91758e-16)
(-2.6837 -0.882072 3.49972e-16)
(-2.72215 -1.05208 0)
(-2.69222 -1.15957 3.23609e-16)
(-2.51098 -1.13162 -3.34308e-16)
(-1.9957 -0.816014 0)
(-1.00688 -0.0567198 6.47723e-16)
(0.0547265 0.651832 -2.70436e-15)
(0.127691 0.622991 1.57626e-15)
(0.159141 0.472935 1.79808e-15)
(0.0477715 -0.244384 -1.43634e-14)
(-0.0338534 0.749463 9.55969e-17)
(-0.114904 0.79219 8.29139e-17)
(-0.212068 0.779775 -1.48661e-16)
(-0.319809 0.771385 2.65204e-16)
(-0.442883 0.762575 -4.72732e-16)
(-0.585887 0.747517 2.11368e-16)
(-0.750593 0.717862 0)
(-0.936771 0.665803 3.45814e-16)
(-1.14079 0.583952 -3.21142e-16)
(-1.35437 0.467475 -3.03473e-16)
(-1.56651 0.31462 2.96325e-16)
(-1.76568 0.127866 0)
(-1.94988 -0.0874993 2.9006e-16)
(-2.11592 -0.323559 -2.46176e-16)
(-2.26279 -0.572996 4.27475e-16)
(-2.3787 -0.819702 7.63631e-19)
(-2.45791 -1.04264 -7.06291e-16)
(-2.49635 -1.22273 3.35081e-16)
(-2.47812 -1.33467 -3.30296e-16)
(-2.3897 -1.32871 -1.13384e-18)
(-1.90863 -1.03849 8.21696e-16)
(-0.946556 -0.204129 -7.3107e-16)
(0.115992 0.572513 0)
(0.203349 0.434313 0)
(0.129338 -0.11984 0)
(-0.00501399 0.788911 0)
(-0.0441789 0.872801 0)
(-0.0999173 0.873103 0)
(-0.167446 0.879261 0)
(-0.249791 0.888236 0)
(-0.352356 0.892621 0)
(-0.478398 0.88347 -1.97626e-16)
(-0.628699 0.850944 1.80652e-16)
(-0.801492 0.785591 3.34206e-16)
(-0.99083 0.677695 -3.18928e-16)
(-1.18779 0.520179 -3.12972e-16)
(-1.38505 0.314961 3.20731e-16)
(-1.57484 0.06922 0)
(-1.74996 -0.202283 -2.95935e-16)
(-1.89916 -0.489353 2.48004e-16)
(-2.01607 -0.775402 0)
(-2.09507 -1.03559 0)
(-2.14141 -1.2461 3.66482e-16)
(-2.16637 -1.3971 -7.08047e-16)
(-2.16339 -1.4703 3.52883e-16)
(-2.10928 -1.47475 3.71577e-16)
(-1.7002 -1.21426 -9.09683e-16)
(-0.716524 -0.322589 9.61656e-16)
(0.137598 0.438591 0)
(0.210984 0.150257 -3.6833e-15)
(0.0235654 0.784927 0)
(0.0266371 0.912348 0)
(0.0145577 0.927217 1.56057e-16)
(-0.00973153 0.946904 -1.45342e-16)
(-0.0478921 0.971159 0)
(-0.106195 0.992843 2.37398e-16)
(-0.187549 1.00203 -4.29482e-16)
(-0.293286 0.986755 1.96464e-16)
(-0.423323 0.933236 3.64319e-16)
(-0.574733 0.826329 -3.50601e-16)
(-0.742906 0.661686 0)
(-0.927581 0.448796 3.62378e-16)
(-1.11636 0.198173 -3.94448e-16)
(-1.28394 -0.0948925 -3.92828e-16)
(-1.42888 -0.417587 -3.06239e-16)
(-1.55433 -0.747938 5.06941e-16)
(-1.64434 -1.04832 0)
(-1.69875 -1.28487 4.11306e-16)
(-1.73304 -1.44112 -3.93328e-16)
(-1.76655 -1.52025 0)
(-1.79263 -1.55066 0)
(-1.76661 -1.53775 0)
(-1.40197 -1.28213 0)
(-0.670969 -0.837537 1.31233e-15)
(0.0766156 -0.682774 -7.9747e-15)
(0.0525149 0.735762 0)
(0.0971597 0.906286 0)
(0.128095 0.941664 0)
(0.147176 0.975129 0)
(0.155783 1.01664 0)
(0.147841 1.05897 0)
(0.12036 1.09157 0)
(0.0719687 1.1011 0)
(-0.00305265 1.07056 0)
(-0.102243 0.990924 0)
(-0.223837 0.850945 0)
(-0.368666 0.661022 0)
(-0.518474 0.408657 0)
(-0.646563 0.0714646 0)
(-0.780063 -0.293553 0)
(-0.932342 -0.675308 0)
(-1.05249 -1.03372 0)
(-1.13502 -1.31111 0)
(-1.19333 -1.48684 0)
(-1.24157 -1.55037 0)
(-1.29454 -1.53446 0)
(-1.35076 -1.45421 0)
(-1.37514 -1.28253 0)
(-1.22062 -0.960192 0)
(-0.940211 -0.536203 0)
(0.0743541 0.643719 0)
(0.161808 0.861813 0)
(0.235175 0.915601 0)
(0.295158 0.956451 0)
(0.347526 1.00902 0)
(0.387952 1.06634 0)
(0.412691 1.11791 0)
(0.42031 1.15101 0)
(0.405334 1.16431 0)
(0.368604 1.10115 0)
(0.310556 0.978153 0)
(0.229654 0.800661 0)
(0.13569 0.591184 0)
(0.114333 0.349186 0)
(0.0247771 -0.00526309 0)
(-0.176812 -0.418989 0)
(-0.342417 -0.842171 0)
(-0.456487 -1.17553 0)
(-0.547552 -1.39363 0)
(-0.616171 -1.4956 0)
(-0.654702 -1.48154 0)
(-0.671856 -1.38165 0)
(-0.652761 -1.27605 0)
(-0.564929 -1.20058 0)
(-0.343742 -1.04664 0)
(0.0763186 0.517886 0)
(0.207269 0.771134 0)
(0.327197 0.846462 0)
(0.42752 0.895155 0)
(0.518128 0.953823 0)
(0.600501 1.02075 0)
(0.671142 1.08444 0)
(0.728499 1.13353 0)
(0.771191 1.14928 0)
(0.797556 1.12496 0)
(0.803159 1.04708 0)
(0.784558 0.891175 0)
(0.732906 0.682532 0)
(0.63777 0.431528 0)
(0.583717 0.107762 0)
(0.468733 -0.274662 0)
(0.310172 -0.714666 0)
(0.20251 -1.07484 0)
(0.100649 -1.31514 0)
(0.00460974 -1.44718 0)
(-0.0618222 -1.4859 0)
(-0.0966853 -1.38875 0)
(-0.0898126 -1.22471 0)
(-0.0302294 -1.0387 0)
(0.110527 -0.874089 0)
(0.053652 0.387241 0)
(0.21296 0.628665 0)
(0.385826 0.727369 0)
(0.535348 0.793508 0)
(0.663133 0.859718 0)
(0.778408 0.933726 0)
(0.883987 1.00613 0)
(0.980443 1.06516 0)
(1.06829 1.09854 0)
(1.14519 1.08728 0)
(1.20838 1.02601 0)
(1.24989 0.895587 0)
(1.25396 0.690964 0)
(1.18653 0.423284 0)
(1.09489 0.104711 0)
(0.966842 -0.258088 0)
(0.858624 -0.645992 0)
(0.763698 -0.986296 0)
(0.662384 -1.22907 0)
(0.554058 -1.36544 0)
(0.460163 -1.40393 0)
(0.398079 -1.36892 0)
(0.376722 -1.27898 0)
(0.409081 -1.16516 0)
(0.517715 -1.04531 0)
(0.0228622 0.296477 0)
(0.162882 0.455996 0)
(0.381806 0.543655 0)
(0.598779 0.642644 0)
(0.775036 0.732852 0)
(0.920122 0.816561 0)
(1.04906 0.895388 0)
(1.16965 0.960004 0)
(1.28517 0.998602 0)
(1.39426 0.99602 0)
(1.4949 0.941495 0)
(1.5782 0.824589 0)
(1.6321 0.63659 0)
(1.62895 0.375722 0)
(1.57326 0.0536166 0)
(1.47616 -0.287605 0)
(1.37302 -0.618866 0)
(1.27267 -0.908657 0)
(1.16028 -1.1306 0)
(1.03555 -1.27064 0)
(0.919446 -1.32774 0)
(0.834961 -1.31135 0)
(0.797238 -1.2495 0)
(0.814424 -1.17741 0)
(0.891299 -1.11844 0)
(0.000242089 0.263333 0)
(0.0763607 0.33613 0)
(0.263583 0.296127 0)
(0.559676 0.398302 0)
(0.821877 0.550742 0)
(1.01519 0.672914 0)
(1.16626 0.765975 0)
(1.29952 0.83586 0)
(1.42616 0.877083 0)
(1.54837 0.87833 0)
(1.66423 0.828035 0)
(1.76706 0.719763 0)
(1.84924 0.55131 0)
(1.89268 0.319785 0)
(1.88399 0.0364809 0)
(1.82977 -0.26084 0)
(1.74843 -0.547693 0)
(1.65342 -0.802558 0)
(1.54141 -1.00699 0)
(1.41482 -1.14894 0)
(1.29254 -1.22503 0)
(1.19832 -1.24103 0)
(1.1506 -1.22394 0)
(1.16013 -1.20522 0)
(1.22409 -1.19725 0)
(-0.00238511 0.27075 0)
(0.0761808 0.293266 0)
(0.237217 0.0736415 0)
(0.44931 0.0470779 0)
(0.755522 0.241954 0)
(1.02548 0.459606 0)
(1.22076 0.6088 0)
(1.37027 0.701612 0)
(1.50071 0.751249 0)
(1.62228 0.757216 0)
(1.73767 0.713585 0)
(1.84363 0.615523 0)
(1.9324 0.464695 0)
(2.00614 0.265648 0)
(2.01906 0.0266874 0)
(1.9962 -0.228295 0)
(1.94558 -0.475959 0)
(1.86848 -0.699742 0)
(1.77061 -0.888337 0)
(1.65638 -1.03129 0)
(1.54468 -1.12331 0)
(1.45914 -1.17048 0)
(1.42079 -1.19804 0)
(1.43709 -1.23027 0)
(1.49912 -1.26505 0)
(0.0198899 0.261208 0)
(0.182665 0.129786 0)
(0.365737 -0.100819 0)
(0.503759 -0.182358 0)
(0.68349 -0.0897524 0)
(0.949106 0.159623 0)
(1.19206 0.3952 0)
(1.37226 0.545115 0)
(1.511 0.622434 0)
(1.62985 0.641705 0)
(1.73735 0.607706 0)
(1.83467 0.521443 0)
(1.92054 0.38673 0)
(1.98217 0.212058 0)
(2.03038 0.00865098 0)
(2.02443 -0.207932 0)
(1.99508 -0.421172 0)
(1.94325 -0.618547 0)
(1.86736 -0.792247 0)
(1.77433 -0.933227 0)
(1.68492 -1.03831 0)
(1.6233 -1.11658 0)
(1.60813 -1.18962 0)
(1.64192 -1.26928 0)
(1.70949 -1.33711 0)
(0.0627511 0.171836 0)
(0.248228 -0.130402 0)
(0.419147 -0.305658 0)
(0.558454 -0.305439 0)
(0.679866 -0.240688 0)
(0.851778 -0.0990166 0)
(1.08736 0.143992 0)
(1.29653 0.357358 0)
(1.45265 0.482344 0)
(1.57233 0.527896 0)
(1.67248 0.508586 0)
(1.76039 0.434507 0)
(1.83636 0.314939 0)
(1.89784 0.159555 0)
(1.93918 -0.0171011 0)
(1.95831 -0.200955 0)
(1.95117 -0.384801 0)
(1.9219 -0.561722 0)
(1.86493 -0.723133 0)
(1.79655 -0.861037 0)
(1.7366 -0.97959 0)
(1.70749 -1.09149 0)
(1.72388 -1.20942 0)
(1.77834 -1.32545 0)
(1.85104 -1.41018 0)
(0.0960955 -0.0450629 0)
(0.242081 -0.36512 0)
(0.351718 -0.460833 0)
(0.460064 -0.42007 0)
(0.57508 -0.330789 0)
(0.705099 -0.228823 0)
(0.905375 -0.0679976 0)
(1.13393 0.156317 0)
(1.31299 0.329705 0)
(1.44342 0.411666 0)
(1.54211 0.412868 0)
(1.62345 0.351929 0)
(1.69464 0.245391 0)
(1.75549 0.107472 0)
(1.8019 -0.0479875 0)
(1.83028 -0.210345 0)
(1.83648 -0.374264 0)
(1.82189 -0.534238 0)
(1.78933 -0.681997 0)
(1.74856 -0.816318 0)
(1.72046 -0.952287 0)
(1.72901 -1.10133 0)
(1.77972 -1.25813 0)
(1.85537 -1.39618 0)
(1.93531 -1.48334 0)
(0.0762973 -0.211585 0)
(0.1414 -0.451342 0)
(0.154557 -0.492844 0)
(0.178552 -0.488384 0)
(0.25262 -0.428005 0)
(0.354573 -0.34366 0)
(0.510991 -0.228922 0)
(0.789678 -0.0410768 0)
(1.04536 0.165334 0)
(1.20946 0.288561 0)
(1.32547 0.31596 0)
(1.41507 0.269414 0)
(1.49028 0.173477 0)
(1.55653 0.0476688 0)
(1.61019 -0.0932387 0)
(1.64952 -0.239551 0)
(1.67188 -0.386772 0)
(1.67649 -0.528577 0)
(1.6631 -0.66006 0)
(1.6452 -0.795177 0)
(1.65349 -0.959261 0)
(1.70985 -1.15042 0)
(1.80291 -1.33746 0)
(1.90466 -1.48226 0)
(1.99591 -1.56198 0)
(0.0122845 -0.272458 0)
(-0.0397047 -0.449594 0)
(-0.131295 -0.498115 0)
(-0.194917 -0.524975 0)
(-0.203797 -0.528107 0)
(-0.182391 -0.480682 0)
(-0.145771 -0.397046 0)
(0.0367967 -0.256911 0)
(0.43392 -0.0461706 0)
(0.756691 0.130957 0)
(0.944154 0.194273 0)
(1.0774 0.167207 0)
(1.18316 0.0820838 0)
(1.27176 -0.03362 0)
(1.34462 -0.161836 0)
(1.40427 -0.291786 0)
(1.45239 -0.417238 0)
(1.4763 -0.533639 0)
(1.47855 -0.649618 0)
(1.49739 -0.804079 0)
(1.57373 -1.01765 0)
(1.7019 -1.25342 0)
(1.8437 -1.45524 0)
(1.96893 -1.5892 0)
(2.06847 -1.65212 0)
(-0.0726627 -0.22471 0)
(-0.237067 -0.388444 0)
(-0.395392 -0.459084 0)
(-0.508221 -0.522731 0)
(-0.590223 -0.552961 0)
(-0.663434 -0.5468 0)
(-0.736572 -0.502646 0)
(-0.713314 -0.422097 0)
(-0.629057 -0.35095 0)
(-0.218886 -0.168138 0)
(0.184397 -0.0268623 0)
(0.453408 -0.00803668 0)
(0.637995 -0.0706129 0)
(0.781837 -0.176941 0)
(0.917945 -0.287106 0)
(1.04475 -0.384762 0)
(1.13957 -0.471717 0)
(1.1954 -0.552416 0)
(1.25461 -0.675261 0)
(1.37974 -0.891061 0)
(1.56921 -1.16703 0)
(1.76878 -1.42237 0)
(1.93657 -1.60496 0)
(2.06192 -1.70693 0)
(2.15429 -1.74595 0)
(-0.146416 -0.0822845 0)
(-0.387946 -0.240723 0)
(-0.588986 -0.361505 0)
(-0.739723 -0.458665 0)
(-0.860307 -0.52329 0)
(-0.964618 -0.55306 0)
(-1.05773 -0.565319 0)
(-1.09887 -0.553726 0)
(-1.04761 -0.535487 0)
(-0.894201 -0.513002 0)
(-0.667727 -0.486885 0)
(-0.491286 -0.519402 0)
(-0.168839 -0.546996 0)
(0.158503 -0.551029 0)
(0.437954 -0.552041 0)
(0.661316 -0.555866 0)
(0.821227 -0.567096 0)
(0.96584 -0.632662 0)
(1.17001 -0.823402 0)
(1.4346 -1.11416 0)
(1.69533 -1.40313 0)
(1.90273 -1.6189 0)
(2.04713 -1.74781 0)
(2.14364 -1.80891 0)
(2.21499 -1.82712 0)
(-0.170402 0.16596 0)
(-0.458642 -0.0268054 0)
(-0.688281 -0.181864 0)
(-0.859584 -0.310918 0)
(-0.979161 -0.42152 0)
(-1.06207 -0.51369 0)
(-1.12064 -0.585276 0)
(-1.15917 -0.638506 0)
(-1.1313 -0.680253 0)
(-0.98522 -0.729303 0)
(-0.743318 -0.785295 0)
(-0.442845 -0.828583 0)
(-0.134676 -0.849207 0)
(0.14094 -0.82984 0)
(0.391709 -0.774664 0)
(0.593594 -0.713331 0)
(0.787196 -0.715093 0)
(1.03642 -0.852772 0)
(1.34145 -1.11761 0)
(1.63395 -1.40628 0)
(1.8597 -1.63276 0)
(2.01013 -1.77462 0)
(2.10413 -1.84853 0)
(2.16713 -1.87954 0)
(2.22001 -1.88745 0)
(-0.140262 0.368801 0)
(-0.417346 0.223864 0)
(-0.669183 0.0596209 0)
(-0.843556 -0.109758 0)
(-0.948135 -0.270735 0)
(-1.01133 -0.417541 0)
(-1.06141 -0.543991 0)
(-1.08938 -0.645999 0)
(-1.00985 -0.732662 0)
(-0.842289 -0.819205 0)
(-0.582141 -0.904192 0)
(-0.281827 -0.975213 0)
(0.0134678 -1.01813 0)
(0.273835 -0.997716 0)
(0.498967 -0.946651 0)
(0.712075 -0.914938 0)
(0.965283 -0.982839 0)
(1.26776 -1.17704 0)
(1.56125 -1.42574 0)
(1.78911 -1.6409 0)
(1.93943 -1.78591 0)
(2.03108 -1.86815 0)
(2.09002 -1.90933 0)
(2.13699 -1.92835 0)
(2.18494 -1.93698 0)
(-0.0926167 0.564672 0)
(-0.313123 0.472512 0)
(-0.541615 0.318458 0)
(-0.707069 0.117604 0)
(-0.798581 -0.0978137 0)
(-0.844003 -0.300956 0)
(-0.870554 -0.486035 0)
(-0.869794 -0.647327 0)
(-0.815926 -0.787144 0)
(-0.678425 -0.922438 0)
(-0.441558 -1.06322 0)
(-0.163052 -1.18116 0)
(0.113902 -1.23749 0)
(0.37262 -1.22196 0)
(0.613381 -1.18937 0)
(0.869477 -1.19741 0)
(1.1589 -1.29663 0)
(1.44443 -1.47059 0)
(1.67423 -1.65191 0)
(1.83078 -1.79095 0)
(1.92841 -1.8785 0)
(1.99141 -1.92804 0)
(2.04013 -1.95638 0)
(2.08791 -1.97518 0)
(2.1421 -1.99067 0)
(-0.0446816 0.763081 0)
(-0.19707 0.691563 0)
(-0.382207 0.54498 0)
(-0.498855 0.326498 0)
(-0.555909 0.0651632 0)
(-0.582714 -0.197245 0)
(-0.599203 -0.444809 0)
(-0.613933 -0.660094 0)
(-0.601464 -0.844976 0)
(-0.496611 -1.0362 0)
(-0.289341 -1.25108 0)
(-0.0340794 -1.42555 0)
(0.225976 -1.48849 0)
(0.48266 -1.48103 0)
(0.74077 -1.4618 0)
(1.01474 -1.4825 0)
(1.28803 -1.56891 0)
(1.52099 -1.69444 0)
(1.69049 -1.81197 0)
(1.80207 -1.89608 0)
(1.8756 -1.94819 0)
(1.93112 -1.98106 0)
(1.98293 -2.00616 0)
(2.03882 -2.02969 0)
(2.10215 -2.05385 0)
(-0.000341179 0.965142 0)
(-0.0925699 0.881239 0)
(-0.225333 0.722031 0)
(-0.277588 0.493097 0)
(-0.269484 0.194383 0)
(-0.280452 -0.114658 0)
(-0.294838 -0.422694 0)
(-0.315378 -0.669087 0)
(-0.330658 -0.866568 0)
(-0.265613 -1.0985 0)
(-0.0917834 -1.40153 0)
(0.132827 -1.64035 0)
(0.373104 -1.72363 0)
(0.6197 -1.729 0)
(0.8722 -1.71753 0)
(1.12393 -1.73545 0)
(1.35116 -1.79453 0)
(1.53039 -1.87034 0)
(1.65682 -1.93465 0)
(1.74309 -1.97866 0)
(1.80757 -2.00907 0)
(1.86539 -2.03541 0)
(1.92512 -2.06317 0)
(1.99014 -2.09345 0)
(2.06101 -2.12529 0)
(0.0296307 1.13327 0)
(-0.00303045 1.03024 0)
(-0.0885324 0.84357 0)
(-0.079056 0.620291 0)
(0.0167802 0.339605 0)
(0.0143541 -0.0176385 0)
(0.0129283 -0.422601 0)
(0.0231454 -0.699848 0)
(-0.011058 -0.870008 0)
(0.00342208 -1.1124 0)
(0.130838 -1.5131 0)
(0.32224 -1.82067 0)
(0.537618 -1.93958 0)
(0.760976 -1.95789 0)
(0.983165 -1.94794 0)
(1.19106 -1.95127 0)
(1.36704 -1.97416 0)
(1.50088 -2.00283 0)
(1.5974 -2.02688 0)
(1.67109 -2.04728 0)
(1.73633 -2.0697 0)
(1.80181 -2.09747 0)
(1.87072 -2.13017 0)
(1.94301 -2.16557 0)
(2.01794 -2.20171 0)
(0.0529448 1.20138 0)
(0.0653088 1.1111 0)
(0.0181862 0.892538 0)
(0.0549636 0.66027 0)
(0.215771 0.491269 0)
(0.19986 0.096197 0)
(0.219592 -0.436222 0)
(0.279332 -0.759458 0)
(0.268214 -0.897534 0)
(0.257546 -1.12452 0)
(0.352253 -1.59349 0)
(0.517429 -1.97785 0)
(0.703435 -2.13118 0)
(0.890329 -2.1559 0)
(1.06761 -2.13658 0)
(1.2245 -2.11544 0)
(1.35237 -2.10352 0)
(1.45159 -2.09957 0)
(1.53162 -2.10314 0)
(1.60384 -2.11609 0)
(1.67556 -2.13898 0)
(1.7491 -2.16967 0)
(1.82389 -2.20482 0)
(1.89908 -2.24174 0)
(1.97462 -2.27919 0)
(0.0659665 1.13144 0)
(0.115766 1.10236 0)
(0.107728 0.874863 0)
(0.159422 0.618623 0)
(0.24758 0.319686 0)
(0.268177 -0.0444003 0)
(0.337142 -0.521001 0)
(0.440718 -0.84258 0)
(0.475488 -0.961583 0)
(0.474826 -1.1617 0)
(0.559756 -1.67164 0)
(0.707319 -2.1177 0)
(0.859802 -2.28872 0)
(1.00071 -2.3086 0)
(1.12661 -2.27348 0)
(1.23456 -2.23052 0)
(1.32518 -2.1975 0)
(1.4043 -2.1797 0)
(1.4793 -2.17816 0)
(1.55473 -2.19135 0)
(1.63131 -2.21561 0)
(1.70777 -2.24662 0)
(1.78304 -2.28105 0)
(1.85688 -2.31719 0)
(1.93 -2.35467 0)
(0.0818398 0.944073 0)
(0.166356 0.99887 0)
(0.190661 0.793145 0)
(0.252795 0.506766 0)
(0.310498 0.101208 0)
(0.36266 -0.28933 0)
(0.481222 -0.680689 0)
(0.609753 -0.947831 0)
(0.655723 -1.03966 0)
(0.656627 -1.21539 0)
(0.745582 -1.76195 0)
(0.880937 -2.24318 0)
(0.995531 -2.40563 0)
(1.08684 -2.41287 0)
(1.16507 -2.36475 0)
(1.23569 -2.31106 0)
(1.30381 -2.27228 0)
(1.37384 -2.25386 0)
(1.44736 -2.25428 0)
(1.52304 -2.26891 0)
(1.59849 -2.29271 0)
(1.6721 -2.32183 0)
(1.74343 -2.35418 0)
(1.81319 -2.38906 0)
(1.88252 -2.42652 0)
(0.102193 0.66012 0)
(0.229553 0.812947 0)
(0.291626 0.647233 0)
(0.35974 0.336498 0)
(0.432201 -0.092931 0)
(0.526361 -0.477761 0)
(0.661652 -0.815798 0)
(0.777258 -1.03057 0)
(0.792696 -1.09887 0)
(0.792163 -1.27486 0)
(0.901893 -1.86523 0)
(1.02679 -2.345 0)
(1.10202 -2.47744 0)
(1.14921 -2.47307 0)
(1.19196 -2.42121 0)
(1.23961 -2.36973 0)
(1.29575 -2.33653 0)
(1.36002 -2.32388 0)
(1.42927 -2.32767 0)
(1.49978 -2.34264 0)
(1.56909 -2.3647 0)
(1.63638 -2.39151 0)
(1.70209 -2.42214 0)
(1.76702 -2.45636 0)
(1.83202 -2.49426 0)
(0.1126 0.326597 0)
(0.294624 0.564188 0)
(0.410786 0.462448 0)
(0.502787 0.158867 0)
(0.59798 -0.23537 0)
(0.692624 -0.604021 0)
(0.795976 -0.906779 0)
(0.850874 -1.07585 0)
(0.845299 -1.13273 0)
(0.873468 -1.35389 0)
(1.02501 -1.98925 0)
(1.13716 -2.42585 0)
(1.17621 -2.5146 0)
(1.19175 -2.50154 0)
(1.21335 -2.45623 0)
(1.24844 -2.41608 0)
(1.29652 -2.39339 0)
(1.35352 -2.38745 0)
(1.41472 -2.39379 0)
(1.47672 -2.40846 0)
(1.53804 -2.42912 0)
(1.59856 -2.45466 0)
(1.65864 -2.48472 0)
(1.71886 -2.51913 0)
(1.7797 -2.55784 0)
(0.0862133 0.0353117 0)
(0.309098 0.259412 0)
(0.48789 0.246945 0)
(0.615424 0.00632489 0)
(0.673454 -0.367055 0)
(0.723537 -0.715939 0)
(0.785243 -0.973798 0)
(0.818169 -1.09801 0)
(0.809518 -1.16275 0)
(0.920829 -1.48999 0)
(1.12118 -2.14037 0)
(1.20882 -2.48341 0)
(1.21871 -2.52533 0)
(1.21759 -2.51263 0)
(1.22912 -2.47993 0)
(1.25655 -2.45403 0)
(1.29682 -2.44195 0)
(1.34494 -2.44186 0)
(1.39682 -2.45049 0)
(1.45022 -2.46565 0)
(1.50428 -2.4863 0)
(1.55882 -2.51199 0)
(1.61398 -2.54247 0)
(1.66976 -2.57756 0)
(1.72614 -2.61713 0)
(0.0303147 -0.108255 0)
(0.231965 -0.0392164 0)
(0.401139 -0.0310219 0)
(0.444458 -0.205766 0)
(0.458832 -0.530501 0)
(0.514706 -0.836522 0)
(0.603187 -1.04133 0)
(0.650171 -1.13781 0)
(0.739093 -1.2524 0)
(0.973914 -1.71312 0)
(1.18876 -2.29756 0)
(1.23494 -2.51223 0)
(1.23157 -2.52601 0)
(1.22743 -2.51638 0)