/*--------------------------------*- C++ -*----------------------------------*\
  =========                 |
  \\      /  F ield         | OpenFOAM: The Open Source CFD Toolbox
   \\    /   O peration     | Website:  https://openfoam.org
    \\  /    A nd           | Version:  13
     \\/     M anipulation  |
\*---------------------------------------------------------------------------*/
FoamFile
{
    format      ascii;
    class       volVectorField;
    location    "17";
    object      U;
}
// * * * * * * * * * * * * * * * * * * * * * * * * * * * * * * * * * * * * * //

dimensions      [0 1 -1 0 0 0 0];

internalField   nonuniform List<vector> 
6440
(
(4.32964e-08 -7.06797e-08 0)
(1.18969e-07 -1.36752e-07 0)
(2.76145e-07 -1.48787e-07 -1.56501e-20)
(4.30555e-07 -1.76667e-07 1.56001e-20)
(6.08911e-07 -2.22566e-07 0)
(7.98464e-07 -2.73068e-07 -3.09023e-20)
(9.82783e-07 -3.21572e-07 3.07082e-20)
(1.14428e-06 -3.62024e-07 0)
(1.26639e-06 -3.87646e-07 6.04812e-20)
(1.33583e-06 -3.90923e-07 -5.99252e-20)
(1.34532e-06 -3.66118e-07 -5.93525e-20)
(1.29267e-06 -3.11772e-07 -2.5693e-23)
(1.18069e-06 -2.28647e-07 -3.18366e-23)
(1.01769e-06 -1.16625e-07 5.73247e-20)
(8.16543e-07 2.2319e-08 5.66317e-20)
(5.92517e-07 1.84827e-07 -5.5826e-20)
(3.55776e-07 3.68254e-07 0)
(1.11135e-07 5.59373e-07 1.08542e-19)
(-1.32866e-07 7.40236e-07 9.50493e-23)
(-3.65176e-07 9.12415e-07 -1.05064e-19)
(-5.70048e-07 1.04999e-06 1.03409e-19)
(-7.16102e-07 1.08767e-06 -2.03177e-19)
(-1.00168e-06 1.03482e-06 9.97489e-20)
(-9.28221e-07 4.67234e-07 -9.80094e-20)
(-2.50785e-07 -2.71211e-07 -2.51751e-23)
(6.38952e-08 -2.84149e-07 0)
(2.36172e-07 -5.99161e-07 0)
(5.39997e-07 -7.53851e-07 -1.66924e-20)
(9.097e-07 -9.23029e-07 1.66393e-20)
(1.35484e-06 -1.0968e-06 0)
(1.84213e-06 -1.23543e-06 -3.29564e-20)
(2.34636e-06 -1.32273e-06 3.27504e-20)
(2.83858e-06 -1.35087e-06 0)
(3.28977e-06 -1.31668e-06 0)
(3.67159e-06 -1.21824e-06 0)
(3.95286e-06 -1.05559e-06 0)
(4.10789e-06 -8.33364e-07 -6.25928e-20)
(4.13391e-06 -5.62392e-07 6.18545e-20)
(4.03968e-06 -2.55697e-07 0)
(3.83372e-06 7.46928e-08 6.03518e-20)
(3.53105e-06 4.17731e-07 -5.94973e-20)
(3.1254e-06 7.62467e-07 0)
(2.61131e-06 1.0946e-06 0)
(2.0742e-06 1.3727e-06 1.13981e-19)
(1.57494e-06 1.58106e-06 -1.12064e-19)
(1.10304e-06 1.70767e-06 1.10402e-19)
(7.052e-07 1.6587e-06 -1.08421e-19)
(6.18568e-08 1.48859e-06 -1.06713e-19)
(-4.95929e-07 7.64494e-07 -1.31944e-22)
(8.11798e-08 -6.68158e-07 7.61316e-20)
(7.99427e-08 -6.50453e-07 0)
(3.56177e-07 -1.34305e-06 0)
(7.89565e-07 -1.73452e-06 -1.68612e-20)
(1.31424e-06 -2.10468e-06 1.68104e-20)
(1.92966e-06 -2.42261e-06 0)
(2.58947e-06 -2.62652e-06 -3.33045e-20)
(3.2588e-06 -2.6939e-06 6.62083e-20)
(3.89822e-06 -2.61889e-06 -3.28739e-20)
(4.47015e-06 -2.40679e-06 6.52166e-20)
(4.93722e-06 -2.06897e-06 -6.46509e-20)
(5.26037e-06 -1.62236e-06 -6.40294e-20)
(5.4145e-06 -1.09139e-06 -7.73283e-24)
(5.39539e-06 -4.95591e-07 6.26619e-20)
(5.21005e-06 1.36146e-07 6.1953e-20)
(4.87906e-06 7.71482e-07 3.69289e-23)
(4.40467e-06 1.38818e-06 -6.0375e-20)
(3.77313e-06 1.95918e-06 0)
(3.04226e-06 2.45276e-06 1.17624e-19)
(2.33402e-06 2.84344e-06 -1.15805e-19)
(1.68366e-06 3.1008e-06 0)
(1.07426e-06 3.21481e-06 1.12574e-19)
(6.08591e-07 3.08944e-06 -2.21481e-19)
(4.3402e-08 2.79696e-06 1.08881e-19)
(-4.83264e-07 2.04163e-06 -1.07258e-19)
(2.75942e-07 2.48919e-08 7.88063e-20)
(9.36895e-08 -1.11693e-06 0)
(4.19767e-07 -2.22492e-06 0)
(8.98401e-07 -2.88542e-06 -1.69587e-20)
(1.47355e-06 -3.47163e-06 1.69104e-20)
(2.14117e-06 -3.92067e-06 0)
(2.84928e-06 -4.15613e-06 -3.35116e-20)
(3.56079e-06 -4.1573e-06 6.66378e-20)
(4.23447e-06 -3.92845e-06 -3.30977e-20)
(4.83109e-06 -3.49044e-06 0)
(5.30837e-06 -2.87431e-06 0)
(5.61662e-06 -2.11536e-06 0)
(5.74334e-06 -1.2602e-06 -6.38878e-20)
(5.69373e-06 -3.56211e-07 6.32081e-20)
(5.46474e-06 5.53406e-07 6.25192e-20)
(5.06586e-06 1.43377e-06 -6.17612e-20)
(4.47687e-06 2.24368e-06 0)
(3.71459e-06 2.94418e-06 1.20579e-19)
(2.92133e-06 3.50252e-06 -1.18875e-19)
(2.17771e-06 3.89498e-06 0)
(1.45498e-06 4.1147e-06 0)
(7.80652e-07 4.15982e-06 0)
(2.95612e-07 3.94606e-06 0)
(-1.66999e-07 3.55029e-06 0)
(-6.63159e-07 2.82715e-06 -1.09171e-19)
(3.06759e-07 4.55088e-07 -6.34292e-23)
(9.86641e-08 -1.61779e-06 0)
(4.24469e-07 -3.10105e-06 0)
(8.71633e-07 -4.00967e-06 -1.69962e-20)
(1.40856e-06 -4.79048e-06 1.69504e-20)
(2.03413e-06 -5.34051e-06 0)
(2.70086e-06 -5.5723e-06 -3.35997e-20)
(3.37617e-06 -5.47086e-06 6.68304e-20)
(4.02235e-06 -5.05515e-06 -3.32035e-20)
(4.60121e-06 -4.36675e-06 0)
(5.07055e-06 -3.46166e-06 0)
(5.38939e-06 -2.40261e-06 0)
(5.54035e-06 -1.25217e-06 -6.41757e-20)
(5.51863e-06 -8.38528e-08 6.35274e-20)
(5.33355e-06 1.03391e-06 6.28598e-20)
(4.95299e-06 2.06568e-06 -6.21355e-20)
(4.32843e-06 2.97866e-06 0)
(3.57569e-06 3.71914e-06 1.21456e-19)
(2.82103e-06 4.25757e-06 -1.19821e-19)
(2.04804e-06 4.59182e-06 0)
(1.27351e-06 4.72498e-06 0)
(5.6029e-07 4.67044e-06 0)
(3.95054e-08 4.37495e-06 0)
(-3.8937e-07 3.91099e-06 0)
(-9.02864e-07 3.24902e-06 -1.10627e-19)
(2.78624e-07 6.98761e-07 8.31487e-20)
(9.61014e-08 -2.09791e-06 0)
(3.90802e-07 -3.87199e-06 0)
(7.58945e-07 -4.98471e-06 -1.69832e-20)
(1.2038e-06 -5.92852e-06 1.69399e-20)
(1.7327e-06 -6.55433e-06 0)
(2.30998e-06 -6.76493e-06 -3.35875e-20)
(2.91242e-06 -6.55181e-06 6.68227e-20)
(3.50931e-06 -5.94986e-06 -3.32093e-20)
(4.06663e-06 -5.02316e-06 6.59199e-20)
(4.54418e-06 -3.85295e-06 -6.54335e-20)
(4.90787e-06 -2.52969e-06 0)
(5.13555e-06 -1.14209e-06 -6.42658e-20)
(5.2069e-06 2.22057e-07 2.78442e-24)
(5.11291e-06 1.48572e-06 1.25995e-19)
(4.80534e-06 2.59863e-06 -6.23126e-20)
(4.26674e-06 3.53071e-06 0)
(3.60023e-06 4.25877e-06 1.21928e-19)
(2.87152e-06 4.74129e-06 1.57462e-22)
(2.06856e-06 4.99778e-06 1.92436e-22)
(1.23921e-06 5.04995e-06 -1.17444e-19)
(4.61959e-07 4.91717e-06 0)
(-1.28396e-07 4.56875e-06 0)
(-5.71654e-07 4.06774e-06 0)
(-1.12626e-06 3.47328e-06 -1.11678e-19)
(2.4223e-07 8.27977e-07 8.4867e-20)
(8.89911e-08 -2.52821e-06 0)
(3.37158e-07 -4.49295e-06 0)
(6.03939e-07 -5.7605e-06 -1.69282e-20)
(9.3199e-07 -6.83715e-06 1.68873e-20)
(1.34043e-06 -7.52489e-06 3.36414e-20)
(1.80954e-06 -7.7154e-06 -6.69987e-20)
(2.32779e-06 -7.40509e-06 6.66469e-20)
(2.87313e-06 -6.64371e-06 -3.31311e-20)
(3.41729e-06 -5.51753e-06 0)
(3.92306e-06 -4.13251e-06 6.52835e-20)
(4.35817e-06 -2.60283e-06 -6.47803e-20)
(4.69503e-06 -1.04217e-06 -6.41872e-20)
(4.90271e-06 4.48436e-07 6.36031e-20)
(4.95154e-06 1.79075e-06 6.29743e-20)
(4.77855e-06 2.93571e-06 -6.23193e-20)
(4.385e-06 3.85356e-06 0)
(3.83073e-06 4.52448e-06 1.22047e-19)
(3.13374e-06 4.94118e-06 -1.2056e-19)
(2.29761e-06 5.13426e-06 0)
(1.38929e-06 5.14049e-06 1.18004e-19)
(5.10863e-07 4.97475e-06 -1.16378e-19)
(-1.81869e-07 4.61342e-06 0)
(-6.76715e-07 4.10391e-06 0)
(-1.30321e-06 3.5728e-06 -1.12373e-19)
(2.16904e-07 8.70367e-07 -8.81168e-23)
(8.01828e-08 -2.89794e-06 0)
(2.75071e-07 -4.95547e-06 0)
(4.34672e-07 -6.33079e-06 -1.68384e-20)
(6.40217e-07 -7.5162e-06 1.67999e-20)
(9.23736e-07 -8.26379e-06 0)
(1.28401e-06 -8.44903e-06 -3.33256e-20)
(1.721e-06 -8.07075e-06 3.31755e-20)
(2.22192e-06 -7.19046e-06 0)
(2.76444e-06 -5.9149e-06 0)
(3.31655e-06 -4.37268e-06 0)
(3.84424e-06 -2.69574e-06 0)
(4.31413e-06 -1.01742e-06 -6.39666e-20)
(4.69158e-06 5.47915e-07 6.3414e-20)
(4.92712e-06 1.91409e-06 0)
(4.94708e-06 3.04264e-06 0)
(4.73298e-06 3.92297e-06 0)
(4.30555e-06 4.52407e-06 0)
(3.65453e-06 4.88132e-06 0)
(2.79321e-06 5.03224e-06 1.19308e-19)
(1.79662e-06 5.03155e-06 -1.17799e-19)
(7.84584e-07 4.8983e-06 0)
(-4.49939e-08 4.5801e-06 0)
(-6.42068e-07 4.09149e-06 0)
(-1.38837e-06 3.62521e-06 -1.12757e-19)
(2.21964e-07 8.76378e-07 8.75153e-20)
(7.09178e-08 -3.20508e-06 0)
(2.12533e-07 -5.26927e-06 0)
(2.69792e-07 -6.71401e-06 -1.672e-20)
(3.57097e-07 -7.99382e-06 1.66839e-20)
(5.24698e-07 -8.80507e-06 0)
(7.8976e-07 -9.01052e-06 -3.31025e-20)
(1.1606e-06 -8.60436e-06 6.59009e-20)
(1.6346e-06 -7.65402e-06 -3.27766e-20)
(2.19501e-06 -6.28368e-06 0)
(2.81874e-06 -4.64277e-06 0)
(3.46808e-06 -2.8755e-06 6.41489e-20)
(4.09937e-06 -1.13167e-06 -1.2729e-19)
(4.66342e-06 4.7206e-07 6.31055e-20)
(5.10984e-06 1.84102e-06 6.2508e-20)
(5.37456e-06 2.91854e-06 -6.19211e-20)
(5.37856e-06 3.72562e-06 0)
(5.10498e-06 4.26722e-06 -1.21427e-19)
(4.53595e-06 4.57503e-06 1.20086e-19)
(3.6719e-06 4.70803e-06 0)
(2.60525e-06 4.7413e-06 0)
(1.45058e-06 4.71996e-06 0)
(4.21428e-07 4.54796e-06 1.15377e-19)
(-3.41142e-07 4.13122e-06 -1.13829e-19)
(-1.2734e-06 3.7335e-06 -1.12869e-19)
(3.00128e-07 9.17389e-07 8.84879e-20)
(6.1617e-08 -3.4506e-06 0)
(1.52225e-07 -5.45076e-06 0)
(1.19152e-07 -6.93809e-06 0)
(1.12038e-07 -8.31093e-06 0)
(1.87218e-07 -9.20615e-06 0)
(3.76721e-07 -9.46458e-06 0)
(7.11481e-07 -9.07631e-06 0)
(1.1946e-06 -8.1134e-06 0)
(1.80942e-06 -6.70623e-06 -6.45982e-20)
(2.544e-06 -5.02332e-06 6.42135e-20)
(3.34936e-06 -3.2195e-06 0)
(4.17489e-06 -1.45038e-06 0)
(4.97538e-06 1.61205e-07 0)
(5.66348e-06 1.53707e-06 0)
(6.17587e-06 2.59025e-06 0)
(6.4522e-06 3.32319e-06 0)
(6.39841e-06 3.80041e-06 0)
(5.93918e-06 4.0923e-06 -1.19615e-19)
(5.12392e-06 4.29558e-06 1.18299e-19)
(4.05958e-06 4.4572e-06 0)
(2.79106e-06 4.59588e-06 -1.16183e-19)
(1.49364e-06 4.63324e-06 1.14744e-19)
(4.43378e-07 4.36041e-06 0)
(-8.27791e-07 4.03026e-06 0)
(4.91659e-07 1.08795e-06 0)
(5.2537e-08 -3.6383e-06 0)
(9.98777e-08 -5.52381e-06 0)
(-2.47549e-09 -7.04092e-06 0)
(-7.63258e-08 -8.51753e-06 0)
(-5.0327e-08 -9.53521e-06 0)
(1.15464e-07 -9.8985e-06 0)
(4.61521e-07 -9.58338e-06 3.23762e-20)
(1.01049e-06 -8.66793e-06 -3.22323e-20)
(1.74524e-06 -7.29026e-06 -6.40282e-20)
(2.64955e-06 -5.62654e-06 6.36663e-20)
(3.67276e-06 -3.84458e-06 6.3158e-20)
(4.75879e-06 -2.06993e-06 -6.27267e-20)
(5.85768e-06 -4.57104e-07 0)
(6.84103e-06 9.22289e-07 6.16405e-20)
(7.63413e-06 2.02678e-06 -2.01532e-23)
(8.19111e-06 2.79998e-06 -6.05465e-20)
(8.40014e-06 3.29551e-06 0)
(8.21909e-06 3.6238e-06 -1.18848e-19)
(7.62321e-06 3.91645e-06 1.17603e-19)
(6.53968e-06 4.28222e-06 0)
(5.03371e-06 4.72837e-06 0)
(3.38008e-06 5.06334e-06 1.14546e-19)
(1.90098e-06 4.9745e-06 -1.13146e-19)
(7.16377e-08 4.68206e-06 0)
(8.55219e-07 1.50165e-06 0)
(4.39193e-08 -3.77573e-06 0)
(6.23785e-08 -5.52216e-06 0)
(-7.51913e-08 -7.07649e-06 0)
(-1.69545e-07 -8.68481e-06 0)
(-1.35925e-07 -9.8712e-06 0)
(8.03298e-08 -1.04055e-05 0)
(5.27072e-07 -1.02355e-05 0)
(1.228e-06 -9.43839e-06 0)
(2.1672e-06 -8.15549e-06 0)
(3.32599e-06 -6.56136e-06 0)
(4.68263e-06 -4.83947e-06 -6.25635e-20)
(6.13841e-06 -3.09147e-06 6.21577e-20)
(7.59164e-06 -1.44809e-06 0)
(8.98103e-06 -2.21289e-08 0)
(1.0174e-05 1.17353e-06 0)
(1.10647e-05 2.11882e-06 0)
(1.16232e-05 2.81691e-06 0)
(1.17652e-05 3.35338e-06 0)
(1.13604e-05 3.84928e-06 0)
(1.03325e-05 4.42904e-06 0)
(8.65657e-06 5.18806e-06 0)
(6.51241e-06 5.97035e-06 -1.13846e-19)
(4.33967e-06 6.23156e-06 1.12517e-19)
(1.68023e-06 5.94679e-06 0)
(1.50636e-06 2.29096e-06 0)
(3.63435e-08 -3.8759e-06 0)
(4.98345e-08 -5.49325e-06 0)
(-7.27617e-08 -7.11615e-06 0)
(-1.18788e-07 -8.90358e-06 0)
(6.54413e-09 -1.03225e-05 3.1948e-20)
(3.76711e-07 -1.11028e-05 -3.18557e-20)
(1.04076e-06 -1.1165e-05 0)
(2.02261e-06 -1.05749e-05 0)
(3.3094e-06 -9.46697e-06 -6.27243e-20)
(4.86693e-06 -8.00173e-06 1.24743e-19)
(6.67329e-06 -6.35355e-06 -6.48267e-23)
(8.63162e-06 -4.6634e-06 -6.15411e-20)
(1.06014e-05 -2.96589e-06 0)
(1.24852e-05 -1.34804e-06 0)
(1.41837e-05 9.577e-08 6.00118e-20)
(1.55912e-05 1.35154e-06 -5.95215e-20)
(1.65922e-05 2.43021e-06 -1.17949e-19)
(1.70636e-05 3.34386e-06 -2.9419e-23)
(1.6874e-05 4.23047e-06 1.15794e-19)
(1.58969e-05 5.24725e-06 1.14874e-19)
(1.40806e-05 6.44994e-06 -1.13684e-19)
(1.14729e-05 7.68592e-06 1.12985e-19)
(8.33865e-06 8.35175e-06 -1.11726e-19)
(4.30724e-06 8.10194e-06 0)
(2.5183e-06 3.63867e-06 0)
(2.97575e-08 -3.95738e-06 0)
(7.47819e-08 -5.49728e-06 0)
(3.86355e-08 -7.2512e-06 0)
(1.33723e-07 -9.28753e-06 0)
(4.62682e-07 -1.10235e-05 0)
(1.11618e-06 -1.21419e-05 0)
(2.1478e-06 -1.25383e-05 0)
(3.57696e-06 -1.22565e-05 0)
(5.38814e-06 -1.14177e-05 -6.20166e-20)
(7.53575e-06 -1.01597e-05 6.17152e-20)
(9.95508e-06 -8.61461e-06 0)
(1.25976e-05 -6.92875e-06 0)
(1.53364e-05 -5.16431e-06 0)
(1.79558e-05 -3.3159e-06 0)
(2.0313e-05 -1.39863e-06 0)
(2.23097e-05 4.69405e-07 0)
(2.37914e-05 2.24141e-06 0)
(2.46588e-05 3.8978e-06 -1.15783e-19)
(2.4808e-05 5.52385e-06 1.14731e-19)
(2.40236e-05 7.22585e-06 0)
(2.2074e-05 9.05692e-06 0)
(1.8795e-05 1.08017e-05 0)
(1.43408e-05 1.17543e-05 0)
(8.35477e-06 1.14232e-05 0)
(4.04799e-06 5.71348e-06 0)
(2.62918e-08 -4.04548e-06 0)
(1.50006e-07 -5.606e-06 0)
(2.91037e-07 -7.58616e-06 0)
(6.43903e-07 -9.97938e-06 0)
(1.31344e-06 -1.21367e-05 0)
(2.41088e-06 -1.37027e-05 0)
(3.98931e-06 -1.45463e-05 0)
(6.06567e-06 -1.46879e-05 0)
(8.6198e-06 -1.42229e-05 0)
(1.15983e-05 -1.32591e-05 0)
(1.49168e-05 -1.18877e-05 6.05512e-20)
(1.8465e-05 -1.01777e-05 -6.02125e-20)
(2.21329e-05 -8.22027e-06 0)
(2.5784e-05 -6.05587e-06 0)
(2.91346e-05 -3.61545e-06 5.87698e-20)
(3.19453e-05 -8.51412e-07 -5.8334e-20)
(3.41118e-05 2.03807e-06 -1.1557e-19)
(3.55684e-05 4.94483e-06 1.14614e-19)
(3.61333e-05 7.83005e-06 0)
(3.54712e-05 1.06841e-05 0)
(3.32182e-05 1.3456e-05 0)
(2.90385e-05 1.58759e-05 1.10828e-19)
(2.30221e-05 1.7031e-05 -2.19726e-19)
(1.44431e-05 1.63432e-05 1.08869e-19)
(6.37497e-06 8.82468e-06 0)
(2.94305e-08 -4.17295e-06 0)
(2.92093e-07 -5.91267e-06 0)
(7.00793e-07 -8.2556e-06 0)
(1.44593e-06 -1.11325e-05 0)
(2.63005e-06 -1.38395e-05 0)
(4.3555e-06 -1.59827e-05 0)
(6.68382e-06 -1.74013e-05 -3.05535e-20)
(9.63212e-06 -1.80895e-05 3.04474e-20)
(1.31753e-05 -1.81109e-05 -6.05385e-20)
(1.72492e-05 -1.75349e-05 6.02709e-20)
(2.17546e-05 -1.64097e-05 -5.98404e-20)
(2.6558e-05 -1.47544e-05 5.9521e-20)
(3.14892e-05 -1.25665e-05 0)
(3.63796e-05 -9.86911e-06 -5.85853e-20)
(4.10724e-05 -6.70874e-06 5.8196e-20)
(4.5174e-05 -2.93327e-06 0)
(4.83778e-05 1.47386e-06 0)
(5.06443e-05 6.14897e-06 -1.13306e-19)
(5.17243e-05 1.08991e-05 5.34176e-23)
(5.12061e-05 1.55512e-05 1.11342e-19)
(4.8626e-05 1.98469e-05 0)
(4.34508e-05 2.33412e-05 -1.09557e-19)
(3.55149e-05 2.48753e-05 1.08495e-19)
(2.3529e-05 2.35782e-05 0)
(1.00166e-05 1.34446e-05 -9.00846e-20)
(3.37338e-08 -4.37975e-06 0)
(4.9446e-07 -6.51582e-06 0)
(1.28812e-06 -9.39645e-06 0)
(2.57776e-06 -1.29037e-05 0)
(4.44907e-06 -1.63116e-05 0)
(7.00323e-06 -1.91814e-05 0)
(1.03036e-05 -2.13183e-05 0)
(1.43654e-05 -2.26848e-05 0)
(1.91591e-05 -2.33082e-05 0)
(2.46122e-05 -2.32151e-05 0)
(3.0611e-05 -2.24044e-05 0)
(3.70065e-05 -2.0844e-05 0)
(4.36123e-05 -1.84769e-05 0)
(5.02041e-05 -1.52272e-05 0)
(5.65639e-05 -1.10785e-05 0)
(6.24245e-05 -6.05042e-06 0)
(6.72523e-05 9.87805e-08 0)
(7.07449e-05 7.0478e-06 0)
(7.27025e-05 1.44067e-05 0)
(7.25967e-05 2.17881e-05 0)
(6.98353e-05 2.8568e-05 0)
(6.36856e-05 3.38428e-05 0)
(5.35673e-05 3.60263e-05 0)
(3.70563e-05 3.4129e-05 0)
(1.55882e-05 2.03825e-05 0)
(4.21572e-08 -4.7065e-06 6.68726e-21)
(7.64597e-07 -7.50462e-06 7.5221e-21)
(2.05628e-06 -1.11239e-05 -1.50315e-20)
(4.03897e-06 -1.54435e-05 3.00062e-20)
(6.77491e-06 -1.97201e-05 -2.99505e-20)
(1.03615e-05 -2.34761e-05 0)
(1.486e-05 -2.64803e-05 2.97553e-20)
(2.02817e-05 -2.8658e-05 2.96195e-20)
(2.65917e-05 -2.99937e-05 -1.18084e-19)
(3.37105e-05 -3.04678e-05 5.87797e-20)
(4.15173e-05 -3.00288e-05 5.84054e-20)
(4.9854e-05 -2.85899e-05 -5.81205e-20)
(5.85283e-05 -2.60396e-05 -5.76757e-20)
(6.72994e-05 -2.22455e-05 1.14617e-19)
(7.58938e-05 -1.70837e-05 -8.65335e-23)
(8.40445e-05 -1.05392e-05 5.62799e-20)
(9.11428e-05 -2.49173e-06 -1.11985e-19)
(9.66926e-05 7.09228e-06 -1.10772e-19)
(0.000100342 1.76884e-05 2.19664e-19)
(0.000101368 2.87714e-05 -1.08864e-19)
(9.89425e-05 3.93416e-05 0)
(9.206e-05 4.78372e-05 1.0671e-19)
(7.96365e-05 5.17779e-05 -2.11615e-19)
(5.71466e-05 5.0198e-05 1.04886e-19)
(2.46017e-05 3.16981e-05 8.88533e-20)
(5.75142e-08 -5.18948e-06 0)
(1.10484e-06 -8.96111e-06 0)
(2.99962e-06 -1.35551e-05 0)
(5.81561e-06 -1.88924e-05 0)
(9.58715e-06 -2.42261e-05 0)
(1.44029e-05 -2.90438e-05 0)
(2.03182e-05 -3.30755e-05 0)
(2.7339e-05 -3.62055e-05 0)
(3.54242e-05 -3.83731e-05 0)
(4.44897e-05 -3.95093e-05 0)
(5.44132e-05 -3.95118e-05 0)
(6.50375e-05 -3.8242e-05 0)
(7.61714e-05 -3.55335e-05 0)
(8.75858e-05 -3.12084e-05 0)
(9.89837e-05 -2.5077e-05 0)
(0.000110028 -1.70337e-05 0)
(0.000120251 -7.03428e-06 0)
(0.000129018 5.42833e-06 0)
(0.000135697 1.98511e-05 -1.0853e-19)
(0.000139407 3.54734e-05 1.07705e-19)
(0.000138923 5.13736e-05 0)
(0.000132667 6.57976e-05 0)
(0.000118784 7.51941e-05 0)
(8.90276e-05 7.85257e-05 0)
(4.28387e-05 5.66125e-05 0)
(8.74942e-08 -5.88981e-06 0)
(1.51051e-06 -1.10208e-05 0)
(4.09873e-06 -1.69007e-05 0)
(7.87091e-06 -2.35288e-05 0)
(1.28309e-05 -3.01574e-05 0)
(1.90533e-05 -3.62371e-05 0)
(2.65838e-05 -4.14568e-05 0)
(3.542e-05 -4.56567e-05 0)
(4.55148e-05 -4.8726e-05 0)
(5.67827e-05 -5.05413e-05 0)
(6.91058e-05 -5.09429e-05 -5.69347e-20)
(8.23367e-05 -4.97335e-05 5.66793e-20)
(9.62967e-05 -4.66844e-05 0)
(0.000110772 -4.15478e-05 0)
(0.000125479 -3.40623e-05 0)
(0.000140108 -2.39903e-05 0)
(0.000154644 -1.14015e-05 0)
(0.000168392 3.85754e-06 0)
(0.000180133 2.17051e-05 0)
(0.000189182 4.14748e-05 0)
(0.000194482 6.2207e-05 0)
(0.000193758 8.22752e-05 -1.03681e-19)
(0.000183968 9.76705e-05 1.02844e-19)
(0.00015264 0.000105627 0)
(8.4543e-05 9.59585e-05 0)
(1.18811e-07 -6.75165e-06 0)
(1.90283e-06 -1.34722e-05 0)
(5.17381e-06 -2.07545e-05 0)
(9.8972e-06 -2.87455e-05 0)
(1.60345e-05 -3.6745e-05 0)
(2.36332e-05 -4.41853e-05 0)
(3.2726e-05 -5.07169e-05 0)
(4.33082e-05 -5.61375e-05 0)
(5.53396e-05 -6.02933e-05 0)
(6.87509e-05 -6.3019e-05 0)
(8.34495e-05 -6.41136e-05 0)
(9.93244e-05 -6.33385e-05 0)
(0.000116249 -6.04194e-05 0)
(0.000134082 -5.50538e-05 0)
(0.000152677 -4.69284e-05 0)
(0.00017187 -3.57244e-05 0)
(0.00019154 -2.1248e-05 0)
(0.000211208 -3.80355e-06 0)
(0.000230388 1.66514e-05 0)
(0.000248939 3.99049e-05 0)
(0.000266487 6.52307e-05 0)
(0.000282752 9.14609e-05 0)
(0.000298226 0.000116301 0)
(0.000314811 0.000132935 0)
(0.000347722 0.000146054 0)
(1.48965e-07 -7.74513e-06 0)
(2.26245e-06 -1.62449e-05 0)
(6.13135e-06 -2.50382e-05 0)
(1.1677e-05 -3.44746e-05 0)
(1.88164e-05 -4.39489e-05 0)
(2.75722e-05 -5.29063e-05 0)
(3.79663e-05 -6.09744e-05 0)
(4.99925e-05 -6.7922e-05 0)
(6.36191e-05 -7.35718e-05 0)
(7.87955e-05 -7.77421e-05 0)
(9.54575e-05 -8.02238e-05 0)
(0.000113534 -8.07757e-05 0)
(0.000132953 -7.91274e-05 0)
(0.000153646 -7.49847e-05 0)
(0.000175554 -6.8045e-05 0)
(0.000198644 -5.8037e-05 0)
(0.000222869 -4.47664e-05 0)
(0.000248143 -2.82684e-05 0)
(0.000274364 -8.4891e-06 0)
(0.000301441 1.42163e-05 0)
(0.000329254 3.90314e-05 0)
(0.00035776 6.48974e-05 0)
(0.000386752 8.98287e-05 0)
(0.0004128 0.000109782 0)
(0.000420597 0.000119912 0)
(1.72356e-07 -8.93265e-06 0)
(2.59337e-06 -1.9539e-05 0)
(7.02811e-06 -3.01294e-05 0)
(1.3363e-05 -4.12586e-05 0)
(2.14716e-05 -5.24177e-05 0)
(3.13527e-05 -6.30716e-05 0)
(4.30162e-05 -7.2836e-05 0)
(5.64539e-05 -8.14597e-05 0)
(7.16414e-05 -8.87479e-05 0)
(8.85436e-05 -9.45071e-05 0)
(0.000107121 -9.85222e-05 0)
(0.000127334 -0.000100553 0)
(0.000149155 -0.000100335 0)
(0.000172567 -9.75883e-05 0)
(0.000197579 -9.20303e-05 0)
(0.000224222 -8.3402e-05 0)
(0.000252549 -7.15185e-05 0)
(0.000282592 -5.62998e-05 0)
(0.000314338 -3.78205e-05 0)
(0.000347623 -1.63755e-05 0)
(0.000382122 7.49684e-06 0)
(0.000417076 3.31967e-05 0)
(0.000450612 6.01012e-05 0)
(0.000477608 8.83091e-05 0)
(0.000485975 0.000123213 0)
(1.93074e-07 -1.02782e-05 0)
(2.88961e-06 -2.32637e-05 0)
(7.84329e-06 -3.5884e-05 0)
(1.49108e-05 -4.89039e-05 0)
(2.39267e-05 -6.19179e-05 0)
(3.4867e-05 -7.44219e-05 0)
(4.77293e-05 -8.603e-05 0)
(6.25023e-05 -9.648e-05 0)
(7.91657e-05 -0.000105568 0)
(9.76957e-05 -0.000113095 0)
(0.000118069 -0.00011885 0)
(0.000140271 -0.000122598 0)
(0.000164298 -0.00012409 0)
(0.000190166 -0.000123067 0)
(0.000217911 -0.00011927 0)
(0.000247593 -0.00011246 0)
(0.000279278 -0.000102444 0)
(0.000313003 -8.91062e-05 0)
(0.000348714 -7.24167e-05 0)
(0.000386147 -5.24391e-05 0)
(0.000424688 -2.91943e-05 0)
(0.000463059 -2.49909e-06 0)
(0.000498845 2.86793e-05 0)
(0.000527715 6.74209e-05 0)
(0.000542824 0.000122176 0)
(2.09958e-07 -1.17604e-05 0)
(3.14607e-06 -2.73698e-05 0)
(8.56002e-06 -4.22357e-05 0)
(1.62849e-05 -5.73317e-05 0)
(2.61213e-05 -7.23623e-05 0)
(3.80243e-05 -8.68626e-05 0)
(5.19796e-05 -0.000100453 0)
(6.79706e-05 -0.000112869 0)
(8.59777e-05 -0.000123903 0)
(0.000105982 -0.000133359 0)
(0.00012797 -0.000141029 0)
(0.000151937 -0.000146692 0)
(0.000177892 -0.000150114 0)
(0.000205858 -0.000151054 0)
(0.000235875 -0.000149272 0)
(0.000267991 -0.000144537 0)
(0.000302246 -0.000136635 0)
(0.000338628 -0.000125374 0)
(0.000377014 -0.000110563 0)
(0.000417048 -9.19509e-05 0)
(0.000458003 -6.9068e-05 0)
(0.000498567 -4.0941e-05 0)
(0.000536678 -5.47645e-06 0)
(0.000569522 4.1489e-05 0)
(0.000594268 0.000107723 0)
(2.227e-07 -1.3359e-05 0)
(3.3596e-06 -3.18073e-05 0)
(9.16863e-06 -4.91124e-05 0)
(1.74644e-05 -6.64531e-05 0)
(2.80191e-05 -8.36468e-05 0)
(4.07693e-05 -0.000100274 0)
(5.56884e-05 -0.000115969 0)
(7.27529e-05 -0.000130469 0)
(9.19399e-05 -0.000143568 0)
(0.000113231 -0.000155074 0)
(0.000136613 -0.000164788 0)
(0.000162083 -0.000172499 0)
(0.000189648 -0.000177986 0)
(0.000219327 -0.000181022 0)
(0.000251145 -0.000181371 0)
(0.000285123 -0.000178796 0)
(0.000321258 -0.000173047 0)
(0.000359489 -0.000163842 0)
(0.000399641 -0.000150821 0)
(0.00044134 -0.000133458 0)
(0.000483929 -0.000110888 0)
(0.000526387 -8.16388e-05 0)
(0.000567372 -4.3214e-05 0)
(0.00060554 8.41921e-06 0)
(0.000640475 7.92747e-05 0)
(2.31284e-07 -1.50516e-05 0)
(3.52888e-06 -3.65215e-05 0)
(9.66431e-06 -5.6435e-05 0)
(1.8439e-05 -7.61698e-05 0)
(2.96018e-05 -9.5657e-05 0)
(4.30727e-05 -0.000114527 0)
(5.88134e-05 -0.000132432 0)
(7.67914e-05 -0.000149114 0)
(9.69781e-05 -0.000164373 0)
(0.00011935 -0.000178022 0)
(0.000143891 -0.000189871 0)
(0.000170593 -0.000199717 0)
(0.000199454 -0.000207347 0)
(0.00023048 -0.00021254 0)
(0.000263676 -0.000215059 0)
(0.000299035 -0.000214646 0)
(0.000336522 -0.000211008 0)
(0.000376045 -0.000203781 0)
(0.000417421 -0.000192472 0)
(0.000460335 -0.000176362 0)
(0.000504313 -0.000154358 0)
(0.000548743 -0.0001248 0)
(0.000593021 -8.52466e-05 0)
(0.000636928 -3.23236e-05 0)
(0.000681353 3.81912e-05 0)
(2.35919e-07 -1.68158e-05 0)
(3.65445e-06 -4.14562e-05 0)
(1.00477e-05 -6.41214e-05 0)
(1.92079e-05 -8.63784e-05 0)
(3.08662e-05 -0.000108271 0)
(4.49279e-05 -0.000129482 0)
(6.1343e-05 -0.000149684 0)
(8.00699e-05 -0.000168629 0)
(0.000101072 -0.000186121 0)
(0.000124319 -0.000201981 0)
(0.000149787 -0.000216024 0)
(0.000177461 -0.000228055 0)
(0.000207327 -0.000237868 0)
(0.000239379 -0.00024524 0)
(0.000273603 -0.000249927 0)
(0.000309974 -0.00025165 0)
(0.000348442 -0.000250077 0)
(0.000388914 -0.000244781 0)
(0.000431242 -0.000235188 0)
(0.000475216 -0.000220483 0)
(0.000520586 -0.00019951 0)
(0.000567136 -0.000170653 0)
(0.000614857 -0.000131775 0)
(0.000664266 -8.02761e-05 0)
(0.000716873 -1.34058e-05 0)
(2.36941e-07 -1.86298e-05 0)
(3.73869e-06 -4.65567e-05 0)
(1.03233e-05 -7.20905e-05 0)
(1.97785e-05 -9.69762e-05 0)
(3.18218e-05 -0.000121368 0)
(4.63462e-05 -0.000145001 0)
(6.3291e-05 -0.000167571 0)
(8.26049e-05 -0.000188839 0)
(0.000104243 -0.000208618 0)
(0.000128168 -0.000226734 0)
(0.000154347 -0.000243009 0)
(0.000182756 -0.000257254 0)
(0.000213374 -0.000269265 0)
(0.000246181 -0.000278818 0)
(0.000281157 -0.000285661 0)
(0.000318268 -0.000289501 0)
(0.000357469 -0.000289976 0)
(0.000398692 -0.000286629 0)
(0.00044185 -0.00027885 0)
(0.000486856 -0.000265821 0)
(0.000533672 -0.00024644 0)
(0.000582399 -0.000219277 0)
(0.000633441 -0.000182596 0)
(0.000687729 -0.000134515 0)
(0.00074699 -7.33615e-05 0)
(2.34806e-07 -2.04735e-05 0)
(3.78499e-06 -5.17715e-05 0)
(1.04992e-05 -8.02652e-05 0)
(2.01638e-05 -0.000107865 0)
(3.24873e-05 -0.00013483 0)
(4.73526e-05 -0.000160949 0)
(6.46893e-05 -0.000185941 0)
(8.44375e-05 -0.000209579 0)
(0.000106544 -0.000231681 0)
(0.000130964 -0.000252083 0)
(0.000157659 -0.000270611 0)
(0.000186596 -0.000287082 0)
(0.000217747 -0.000301296 0)
(0.00025109 -0.000313029 0)
(0.000286599 -0.000322026 0)
(0.000324251 -0.000327983 0)
(0.000364015 -0.000330532 0)
(0.000405865 -0.00032921 0)
(0.000449786 -0.00032342 0)
(0.000495811 -0.000312398 0)
(0.00054407 -0.00029517 0)
(0.00059489 -0.000270555 0)
(0.000648916 -0.00023723 0)
(0.000707265 -0.000193909 0)
(0.000771654 -0.000139665 0)
(2.30016e-07 -2.23289e-05 0)
(3.79771e-06 -5.70534e-05 0)
(1.05851e-05 -8.85742e-05 0)
(2.03808e-05 -0.000118953 0)
(3.28878e-05 -0.000148549 0)
(4.79813e-05 -0.000177202 0)
(6.55826e-05 -0.000204655 0)
(8.56242e-05 -0.000230693 0)
(0.000108047 -0.000255144 0)
(0.000132798 -0.000277848 0)
(0.000159834 -0.000298641 0)
(0.000189118 -0.000317345 0)
(0.00022062 -0.000333764 0)
(0.000254315 -0.00034768 0)
(0.000290186 -0.000358837 0)
(0.00032822 -0.000366939 0)
(0.000368417 -0.000371622 0)
(0.000410794 -0.000372444 0)
(0.000455408 -0.000368854 0)
(0.000502389 -0.000360177 0)
(0.000551995 -0.000345602 0)
(0.000604686 -0.000324208 0)
(0.000661222 -0.000295043 0)
(0.000722751 -0.000257289 0)
(0.00079086 -0.000210529 0)
(2.23111e-07 -2.41804e-05 0)
(3.78137e-06 -6.23603e-05 0)
(1.05923e-05 -9.69534e-05 0)
(2.04487e-05 -0.000130157 0)
(3.30521e-05 -0.000162423 0)
(4.82717e-05 -0.000193644 0)
(6.60223e-05 -0.000223584 0)
(8.62306e-05 -0.000252042 0)
(0.000108831 -0.000278855 0)
(0.000133768 -0.000303871 0)
(0.000160994 -0.000326934 0)
(0.000190469 -0.000347873 0)
(0.000222163 -0.000366501 0)
(0.000256058 -0.000382607 0)
(0.000292143 -0.000395947 0)
(0.000330426 -0.000406236 0)
(0.000370935 -0.000413135 0)
(0.000413731 -0.000416239 0)
(0.000458932 -0.000415062 0)
(0.000506742 -0.000409039 0)
(0.000557499 -0.000397524 0)
(0.000611732 -0.000379836 0)
(0.000670225 -0.000355335 0)
(0.00073407 -0.000323559 0)
(0.000804667 -0.000284427 0)
(2.14591e-07 -2.60147e-05 0)
(3.74075e-06 -6.76559e-05 0)
(1.05318e-05 -0.000105346 0)
(2.03874e-05 -0.000141402 0)
(3.301e-05 -0.000176365 0)
(4.8265e-05 -0.000210172 0)
(6.60626e-05 -0.000242614 0)
(8.63248e-05 -0.000273503 0)
(0.000108983 -0.000302683 0)
(0.000133977 -0.000330013 0)
(0.000161258 -0.000355345 0)
(0.000190787 -0.00037852 0)
(0.000222537 -0.000399362 0)
(0.000256495 -0.000417671 0)
(0.000292663 -0.000433221 0)
(0.000331067 -0.000445751 0)
(0.000371763 -0.000454953 0)
(0.000414848 -0.000460472 0)
(0.000460487 -0.000461901 0)
(0.000508932 -0.000458783 0)
(0.000560564 -0.00045063 0)
(0.000615933 -0.000436967 0)
(0.000675797 -0.000417401 0)
(0.000741141 -0.00039173 0)
(0.000813167 -0.00036009 0)
(2.0494e-07 -2.7821e-05 0)
(3.68018e-06 -7.29092e-05 0)
(1.04148e-05 -0.000113703 0)
(2.02163e-05 -0.000152625 0)
(3.27909e-05 -0.000190295 0)
(4.8002e-05 -0.000226697 0)
(6.57565e-05 -0.000261645 0)
(8.59735e-05 -0.000294964 0)
(0.000108582 -0.000326509 0)
(0.00013352 -0.000356149 0)
(0.000160739 -0.000383748 0)
(0.000190201 -0.000409158 0)
(0.000221883 -0.000432217 0)
(0.000255779 -0.000452744 0)
(0.000291905 -0.000470534 0)
(0.0003303 -0.000485353 0)
(0.000371044 -0.000496937 0)
(0.000414263 -0.000504987 0)
(0.000460148 -0.000509173 0)
(0.000508982 -0.000509144 0)
(0.000561159 -0.000504551 0)
(0.000617216 -0.000495089 0)
(0.000677853 -0.000480551 0)
(0.000743938 -0.000460922 0)
(0.00081648 -0.000436473 0)
(1.94553e-07 -2.95906e-05 0)
(3.60379e-06 -7.80945e-05 0)
(1.02511e-05 -0.000121983 0)
(1.99533e-05 -0.000163769 0)
(3.24221e-05 -0.000204145 0)
(4.75204e-05 -0.000243139 0)
(6.51534e-05 -0.000280588 0)
(8.52385e-05 -0.00031633 0)
(0.000107703 -0.000350232 0)
(0.000132486 -0.000382173 0)
(0.000159537 -0.00041203 0)
(0.000188823 -0.00043967 0)
(0.000220323 -0.000464948 0)
(0.00025404 -0.000487702 0)
(0.000289997 -0.000507755 0)
(0.000328249 -0.000524905 0)
(0.00036889 -0.000538932 0)
(0.000412062 -0.000549596 0)
(0.000457975 -0.00055664 0)
(0.000506916 -0.000559812 0)
(0.000559274 -0.000558881 0)
(0.000615553 -0.000553673 0)
(0.000676381 -0.000544125 0)
(0.000742506 -0.000530346 0)
(0.000814764 -0.000512688 0)
(1.83791e-07 -3.13168e-05 0)
(3.51498e-06 -8.31905e-05 0)
(1.00498e-05 -0.000130152 0)
(1.96145e-05 -0.000174786 0)
(3.19282e-05 -0.000217857 0)
(4.68546e-05 -0.00025943 0)
(6.4298e-05 -0.000299365 0)
(8.41753e-05 -0.000337516 0)
(0.000106413 -0.000373759 0)
(0.000130951 -0.000407987 0)
(0.000157741 -0.000440089 0)
(0.000186749 -0.00046995 0)
(0.000217961 -0.000497441 0)
(0.000251383 -0.000522426 0)
(0.000287047 -0.000544753 0)
(0.000325015 -0.000564258 0)
(0.000365389 -0.000580765 0)
(0.000408321 -0.000594087 0)
(0.000454021 -0.000604041 0)
(0.000502772 -0.000610456 0)
(0.000554938 -0.000613199 0)
(0.000610979 -0.000612201 0)
(0.000671445 -0.000607501 0)
(0.000736968 -0.000599292 0)
(0.000808237 -0.000587968 0)
(1.72916e-07 -3.29945e-05 0)
(3.41688e-06 -8.81803e-05 0)
(9.81835e-06 -0.000138179 0)
(1.92139e-05 -0.000185638 0)
(3.13307e-05 -0.00023138 0)
(4.60342e-05 -0.00027551 0)
(6.32291e-05 -0.000317911 0)
(8.28321e-05 -0.000358447 0)
(0.000104771 -0.00039701 0)
(0.000128984 -0.000433504 0)
(0.000155425 -0.000467832 0)
(0.000184063 -0.000499896 0)
(0.000214885 -0.000529588 0)
(0.0002479 -0.000556796 0)
(0.000283145 -0.000581395 0)
(0.000320685 -0.000603258 0)
(0.000360625 -0.00062225 0)
(0.000403114 -0.000638239 0)
(0.000448355 -0.000651101 0)
(0.000496614 -0.000660738 0)
(0.000548223 -0.000667093 0)
(0.000603587 -0.00067018 0)
(0.000663179 -0.000670109 0)
(0.000727526 -0.000667126 0)
(0.000797187 -0.000661642 0)
(1.62169e-07 -3.46201e-05 0)
(3.31184e-06 -9.30502e-05 0)
(9.56334e-06 -0.000146042 0)
(1.87632e-05 -0.00019629 0)
(3.06478e-05 -0.000244673 0)
(4.50849e-05 -0.00029133 0)
(6.198e-05 -0.000336166 0)
(8.12504e-05 -0.000379059 0)
(0.000102824 -0.000419913 0)
(0.00012664 -0.000458644 0)
(0.000152654 -0.000495172 0)
(0.000180834 -0.000529414 0)
(0.000211168 -0.000561284 0)
(0.000243669 -0.000590693 0)
(0.00027837 -0.000617545 0)
(0.000315338 -0.000641746 0)