/*--------------------------------*- C++ -*----------------------------------*\
  =========                 |
  \\      /  F ield         | OpenFOAM: The Open Source CFD Toolbox
   \\    /   O peration     | Website:  https://openfoam.org
    \\  /    A nd           | Version:  13
     \\/     M anipulation  |
\*---------------------------------------------------------------------------*/
FoamFile
{
    format      ascii;
    class       volScalarField;
    location    "4";
    object      p;
}
// * * * * * * * * * * * * * * * * * * * * * * * * * * * * * * * * * * * * * //

dimensions      [0 2 -2 0 0 0 0];

internalField   nonuniform List<scalar> 
6440
(
0.000601534
0.000601527
0.00060151
0.000601485
0.000601451
0.000601411
0.000601366
0.00060132
0.000601276
0.000601238
0.000601211
0.000601196
0.000601198
0.000601217
0.000601255
0.000601312
0.000601387
0.000601476
0.000601577
0.000601687
0.000601804
0.000601928
0.000602056
0.000602194
0.000602322
0.000601571
0.000601564
0.000601548
0.000601523
0.000601488
0.000601447
0.0006014
0.000601351
0.000601301
0.000601255
0.000601215
0.000601189
0.000601179
0.000601191
0.000601226
0.000601288
0.000601376
0.000601489
0.000601624
0.000601779
0.000601953
0.000602147
0.000602353
0.000602568
0.000602771
0.000601623
0.000601614
0.000601596
0.000601566
0.000601526
0.000601476
0.00060142
0.000601361
0.0006013
0.000601243
0.000601193
0.000601154
0.000601136
0.000601143
0.000601181
0.000601254
0.000601358
0.000601494
0.000601662
0.00060186
0.000602086
0.000602337
0.000602604
0.000602869
0.000603103
0.000601694
0.000601683
0.00060166
0.000601624
0.000601575
0.000601515
0.000601447
0.000601374
0.000601301
0.00060123
0.000601168
0.000601118
0.000601092
0.000601096
0.000601136
0.000601209
0.00060132
0.000601473
0.000601666
0.000601898
0.000602164
0.00060246
0.000602776
0.000603082
0.000603342
0.000601793
0.000601779
0.000601752
0.000601708
0.00060165
0.000601579
0.000601498
0.000601412
0.000601324
0.000601239
0.000601163
0.000601101
0.000601062
0.000601057
0.000601084
0.00060115
0.000601261
0.00060142
0.000601628
0.000601882
0.000602177
0.000602509
0.000602867
0.000603214
0.000603505
0.000601924
0.000601908
0.000601875
0.000601824
0.000601756
0.000601674
0.00060158
0.00060148
0.000601376
0.000601275
0.000601183
0.000601106
0.000601049
0.000601026
0.000601035
0.000601086
0.000601188
0.000601342
0.000601552
0.000601817
0.000602131
0.000602492
0.000602888
0.000603279
0.000603605
0.000602089
0.00060207
0.000602033
0.000601974
0.000601896
0.000601802
0.000601695
0.000601579
0.00060146
0.000601342
0.000601231
0.000601135
0.000601056
0.000601008
0.000600994
0.000601024
0.000601106
0.000601246
0.000601448
0.000601713
0.00060204
0.000602424
0.000602855
0.000603291
0.000603653
0.000602289
0.000602267
0.000602224
0.000602158
0.000602069
0.000601963
0.000601841
0.00060171
0.000601573
0.000601436
0.000601306
0.000601188
0.000601085
0.00060101
0.000600967
0.000600968
0.000601023
0.000601139
0.000601325
0.000601583
0.000601914
0.000602316
0.00060278
0.000603259
0.000603658
0.000602523
0.000602498
0.00060245
0.000602376
0.000602277
0.000602157
0.00060202
0.000601872
0.000601716
0.000601559
0.000601407
0.000601265
0.00060114
0.000601032
0.000600956
0.000600924
0.000600946
0.000601032
0.000601193
0.000601435
0.000601764
0.000602178
0.000602669
0.00060319
0.000603625
0.00060279
0.000602763
0.00060271
0.000602627
0.000602518
0.000602385
0.000602232
0.000602065
0.000601889
0.00060171
0.000601533
0.000601365
0.000601211
0.000601072
0.000600964
0.000600897
0.000600882
0.000600932
0.00060106
0.000601278
0.000601594
0.000602014
0.000602528
0.000603087
0.000603556
0.000603089
0.000603059
0.000603002
0.000602912
0.000602793
0.000602647
0.000602478
0.000602293
0.000602095
0.000601892
0.000601688
0.000601491
0.000601306
0.000601136
0.000600995
0.000600891
0.000600836
0.000600845
0.000600933
0.000601117
0.000601412
0.000601827
0.000602356
0.000602947
0.000603448
0.000603418
0.000603386
0.000603325
0.000603229
0.000603101
0.000602943
0.00060276
0.000602556
0.000602337
0.000602109
0.000601877
0.00060165
0.000601432
0.00060123
0.000601053
0.000600911
0.000600814
0.000600777
0.000600818
0.000600958
0.000601218
0.000601617
0.000602155
0.000602764
0.000603297
0.000603773
0.00060374
0.000603676
0.000603576
0.000603441
0.000603274
0.000603079
0.000602859
0.00060262
0.000602367
0.000602108
0.000601848
0.000601595
0.000601357
0.000601143
0.00060096
0.000600818
0.000600732
0.000600719
0.000600804
0.000601016
0.000601382
0.000601913
0.000602537
0.000603096
0.00060415
0.000604118
0.000604053
0.000603951
0.000603813
0.00060364
0.000603436
0.000603204
0.000602948
0.000602674
0.000602388
0.000602096
0.000601805
0.000601529
0.000601272
0.000601044
0.000600853
0.000600712
0.000600638
0.000600658
0.000600804
0.000601116
0.000601622
0.000602252
0.000602835
0.000604544
0.000604513
0.00060445
0.000604349
0.000604211
0.000604038
0.00060383
0.000603592
0.000603326
0.000603036
0.000602728
0.000602405
0.000602074
0.000601761
0.000601458
0.000601176
0.000600927
0.000600722
0.000600578
0.000600519
0.000600582
0.000600816
0.00060127
0.000601888
0.000602488
0.00060495
0.000604921
0.000604862
0.000604765
0.000604632
0.000604464
0.00060426
0.000604023
0.000603756
0.00060346
0.000603138
0.000602796
0.000602437
0.000602081
0.000601724
0.00060138
0.00060106
0.000600777
0.000600546
0.000600391
0.000600347
0.000600471
0.000600836
0.000601408
0.000602002
0.000605359
0.000605335
0.000605282
0.000605194
0.00060507
0.000604912
0.00060472
0.000604494
0.000604235
0.000603945
0.000603625
0.00060328
0.000602916
0.000602507
0.000602102
0.000601694
0.000601294
0.000600915
0.000600572
0.00060029
0.000600103
0.000600071
0.000600285
0.000600738
0.000601279
0.000605766
0.000605748
0.000605703
0.000605627
0.000605518
0.000605377
0.000605203
0.000604998
0.000604759
0.000604488
0.000604185
0.000603848
0.000603475
0.000603056
0.000602625
0.000602169
0.000601691
0.000601204
0.000600723
0.000600269
0.000599878
0.000599609
0.000599571
0.000599785
0.000600214
0.000606164
0.000606152
0.000606118
0.000606055
0.000605965
0.000605845
0.000605697
0.00060552
0.000605312
0.000605072
0.000604799
0.000604491
0.000604144
0.000603762
0.000603299
0.000602825
0.000602296
0.000601716
0.000601092
0.000600436
0.000599777
0.000599168
0.000598735
0.000598552
0.000598816
0.000606545
0.000606539
0.000606514
0.000606466
0.000606394
0.000606298
0.000606177
0.00060603
0.000605857
0.000605654
0.000605419
0.00060515
0.00060484
0.000604487
0.000604089
0.000603598
0.000603042
0.000602413
0.000601689
0.000600867
0.00059993
0.000598864
0.0005977
0.000596553
0.000595736
0.000606911
0.000606911
0.000606895
0.000606857
0.000606796
0.000606712
0.000606604
0.000606472
0.000606313
0.000606127
0.000605909
0.000605657
0.000605365
0.000605025
0.000604628
0.000604154
0.000603597
0.000602926
0.000602114
0.000601151
0.000599939
0.000598374
0.000596233
0.000592837
0.000586271
0.000607264
0.000607266
0.000607252
0.000607216
0.000607159
0.000607079
0.000606975
0.000606848
0.000606695
0.000606513
0.000606301
0.000606052
0.000605762
0.000605423
0.000605023
0.000604549
0.000603985
0.000603308
0.000602493
0.000601455
0.000600146
0.000598429
0.000596055
0.000592533
0.000587193
0.00060761
0.000607614
0.000607602
0.000607568
0.000607512
0.000607433
0.00060733
0.000607203
0.00060705
0.000606869
0.000606655
0.000606406
0.000606114
0.000605772
0.00060537
0.000604893
0.000604324
0.000603641
0.000602812
0.000601785
0.000600497
0.000598847
0.000596689
0.000593832
0.000590167
0.000607949
0.000607955
0.000607946
0.000607914
0.00060786
0.000607783
0.000607682
0.000607557
0.000607406
0.000607227
0.000607016
0.00060677
0.000606482
0.000606145
0.00060575
0.000605283
0.00060473
0.00060407
0.000603277
0.000602315
0.000601138
0.000599691
0.000597915
0.00059578
0.000593368
0.00060828
0.000608289
0.000608283
0.000608255
0.000608204
0.000608131
0.000608034
0.000607914
0.000607769
0.000607596
0.000607393
0.000607156
0.000606879
0.000606558
0.000606182
0.000605742
0.000605225
0.000604616
0.000603896
0.000603043
0.000602034
0.000600847
0.000599476
0.000597957
0.000596403
0.000608605
0.000608617
0.000608615
0.000608591
0.000608545
0.000608477
0.000608387
0.000608274
0.000608137
0.000607974
0.000607784
0.000607562
0.000607304
0.000607006
0.00060666
0.000606259
0.000605795
0.000605256
0.000604631
0.000603912
0.000603091
0.000602168
0.000601165
0.000600135
0.00059918
0.000608923
0.000608939
0.000608942
0.000608922
0.000608882
0.000608821
0.000608739
0.000608636
0.00060851
0.000608361
0.000608186
0.000607984
0.000607751
0.000607482
0.000607174
0.000606822
0.000606419
0.000605961
0.000605443
0.000604864
0.000604228
0.000603549
0.000602857
0.000602205
0.000601676
0.000609235
0.000609255
0.000609263
0.000609249
0.000609216
0.000609163
0.000609091
0.000608998
0.000608886
0.000608753
0.000608598
0.000608418
0.000608213
0.00060798
0.000607715
0.000607416
0.00060708
0.000606707
0.000606296
0.000605853
0.000605388
0.000604921
0.000604481
0.000604118
0.000603897
0.000609541
0.000609565
0.000609578
0.000609571
0.000609545
0.000609501
0.00060944
0.000609361
0.000609263
0.000609148
0.000609014
0.000608861
0.000608687
0.00060849
0.000608271
0.000608028
0.00060776
0.00060747
0.000607163
0.000606845
0.00060653
0.00060624
0.000606002
0.000605859
0.000605858
0.000609841
0.00060987
0.000609888
0.000609888
0.00060987
0.000609836
0.000609786
0.00060972
0.00060964
0.000609544
0.000609433
0.000609306
0.000609165
0.000609007
0.000608833
0.000608645
0.000608444
0.000608234
0.00060802
0.000607814
0.000607628
0.000607483
0.000607404
0.000607425
0.000607584
0.000610136
0.000610168
0.000610192
0.000610198
0.000610189
0.000610165
0.000610127
0.000610076
0.000610013
0.000609937
0.000609849
0.000609751
0.000609641
0.000609522
0.000609394
0.000609258
0.00060912
0.000608982
0.000608853
0.000608742
0.000608664
0.000608636
0.000608682
0.000608826
0.000609099
0.000610424
0.00061046
0.000610489
0.000610502
0.000610501
0.000610488
0.000610463
0.000610427
0.00061038
0.000610325
0.000610261
0.000610189
0.000610112
0.000610029
0.000609944
0.000609858
0.000609777
0.000609704
0.000609648
0.000609619
0.00060963
0.000609696
0.000609836
0.000610071
0.000610424
0.000610706
0.000610745
0.00061078
0.000610799
0.000610807
0.000610804
0.000610791
0.000610769
0.00061074
0.000610705
0.000610664
0.000610619
0.000610572
0.000610524
0.000610479
0.000610438
0.000610408
0.000610392
0.000610399
0.000610439
0.000610521
0.000610661
0.000610873
0.000611173
0.00061158
0.000610981
0.000611023
0.000611062
0.000611089
0.000611104
0.000611111
0.000611111
0.000611103
0.000611091
0.000611074
0.000611056
0.000611036
0.000611017
0.000611002
0.000610993
0.000610993
0.000611007
0.000611041
0.000611101
0.000611196
0.000611336
0.000611533
0.000611798
0.000612145
0.000612587
0.000611248
0.000611294
0.000611337
0.000611369
0.000611393
0.00061141
0.000611421
0.000611427
0.00061143
0.000611432
0.000611434
0.000611438
0.000611445
0.000611459
0.000611482
0.000611518
0.000611572
0.000611647
0.000611751
0.000611892
0.000612077
0.000612317
0.000612621
0.000612999
0.000613462
0.000611508
0.000611556
0.000611603
0.000611641
0.000611672
0.000611698
0.00061172
0.000611739
0.000611757
0.000611776
0.000611797
0.000611822
0.000611853
0.000611893
0.000611945
0.000612012
0.000612099
0.000612209
0.000612349
0.000612526
0.000612746
0.000613017
0.000613348
0.000613746
0.000614219
0.00061176
0.000611809
0.00061186
0.000611903
0.000611941
0.000611975
0.000612007
0.000612038
0.00061207
0.000612105
0.000612143
0.000612187
0.00061224
0.000612303
0.00061238
0.000612473
0.000612587
0.000612726
0.000612896
0.0006131
0.000613346
0.00061364
0.000613989
0.000614398
0.000614872
0.000612003
0.000612053
0.000612107
0.000612155
0.000612198
0.000612241
0.000612282
0.000612324
0.000612369
0.000612417
0.000612471
0.000612532
0.000612603
0.000612687
0.000612785
0.0006129
0.000613038
0.0006132
0.000613391
0.000613617
0.000613882
0.000614192
0.00061455
0.000614963
0.000615434
0.000612236
0.000612288
0.000612344
0.000612396
0.000612445
0.000612494
0.000612544
0.000612596
0.000612652
0.000612712
0.00061278
0.000612856
0.000612944
0.000613044
0.00061316
0.000613294
0.00061345
0.00061363
0.000613839
0.00061408
0.000614358
0.000614677
0.00061504
0.000615451
0.000615913
0.00061246
0.000612513
0.000612571
0.000612625
0.00061268
0.000612735
0.000612792
0.000612853
0.000612918
0.00061299
0.00061307
0.000613159
0.00061326
0.000613375
0.000613505
0.000613654
0.000613825
0.000614019
0.00061424
0.000614493
0.000614778
0.000615102
0.000615465
0.00061587
0.000616321
0.000612674
0.000612727
0.000612787
0.000612844
0.000612902
0.000612963
0.000613027
0.000613095
0.000613169
0.00061325
0.00061334
0.00061344
0.000613553
0.000613679
0.000613822
0.000613983
0.000614164
0.000614368
0.000614599
0.000614858
0.000615148
0.000615471
0.000615831
0.000616228
0.000616665
0.000612878
0.000612931
0.000612991
0.000613051
0.000613113
0.000613178
0.000613247
0.000613322
0.000613403
0.000613493
0.000613591
0.0006137
0.000613822
0.000613958
0.00061411
0.00061428
0.000614469
0.000614681
0.000614917
0.000615179
0.00061547
0.000615791
0.000616145
0.000616531
0.000616952
0.000613071
0.000613124
0.000613185
0.000613246
0.000613311
0.00061338
0.000613454
0.000613534
0.000613621
0.000613717
0.000613823
0.00061394
0.000614069
0.000614212
0.000614371
0.000614547
0.000614742
0.000614959
0.000615197
0.00061546
0.000615749
0.000616066
0.000616411
0.000616786
0.00061719
0.000613254
0.000613306
0.000613367
0.00061343
0.000613497
0.000613569
0.000613646
0.000613731
0.000613824
0.000613925
0.000614036
0.000614159
0.000614294
0.000614442
0.000614606
0.000614787
0.000614986
0.000615204
0.000615443
0.000615704
0.00061599
0.0006163
0.000616635
0.000616997
0.000617384
0.000613427
0.000613478
0.000613539
0.000613602
0.00061367
0.000613745
0.000613825
0.000613914
0.00061401
0.000614116
0.000614231
0.000614358
0.000614497
0.00061465
0.000614817
0.000615
0.0006152
0.000615419
0.000615657
0.000615915
0.000616195
0.000616497
0.000616822
0.000617169
0.00061754
0.000613589
0.000613639
0.000613699
0.000613763
0.000613832
0.000613908
0.000613991
0.000614082
0.000614181
0.00061429
0.000614409
0.000614539
0.000614681
0.000614836
0.000615005
0.000615189
0.000615389
0.000615606
0.000615841
0.000616095
0.000616368
0.000616661
0.000616975
0.000617308
0.000617662
0.00061374
0.000613789
0.000613849
0.000613912
0.000613982
0.000614059
0.000614144
0.000614237
0.000614338
0.000614449
0.00061457
0.000614702
0.000614846
0.000615002
0.000615171
0.000615355
0.000615554
0.000615768
0.000615999
0.000616247
0.000616513
0.000616796
0.000617098
0.000617417
0.000617753
0.000613881
0.000613929
0.000613987
0.000614051
0.000614121
0.000614198
0.000614284
0.000614378
0.000614481
0.000614593
0.000614715
0.000614848
0.000614993
0.000615149
0.000615318
0.0006155
0.000615696
0.000615907
0.000616133
0.000616374
0.000616632
0.000616905
0.000617194
0.000617499
0.000617819
0.000614012
0.000614058
0.000614116
0.000614178
0.000614248
0.000614326
0.000614412
0.000614507
0.00061461
0.000614723
0.000614846
0.000614979
0.000615123
0.000615278
0.000615446
0.000615625
0.000615818
0.000616024
0.000616245
0.000616479
0.000616727
0.00061699
0.000617267
0.000617558
0.000617862
0.000614134
0.000614178
0.000614234
0.000614296
0.000614365
0.000614443
0.000614529
0.000614623
0.000614727
0.00061484
0.000614962
0.000615095
0.000615237
0.000615391
0.000615556
0.000615733
0.000615922
0.000616123
0.000616337
0.000616563
0.000616803
0.000617055
0.00061732
0.000617597
0.000617886
0.000614245
0.000614288
0.000614343
0.000614403
0.000614472
0.000614549
0.000614634
0.000614728
0.000614831
0.000614944
0.000615065
0.000615197
0.000615338
0.000615489
0.000615651
0.000615824
0.000616008
0.000616204
0.000616411
0.000616629
0.00061686
0.000617101
0.000617354
0.000617618
0.000617892
0.000614348
0.000614389
0.000614442
0.000614501
0.000614569
0.000614645
0.000614729
0.000614823
0.000614925
0.000615036
0.000615156
0.000615286
0.000615425
0.000615573
0.000615732
0.000615901
0.00061608
0.000616269
0.000616469
0.00061668
0.000616901
0.000617132
0.000617373
0.000617623
0.000617883
0.000614442
0.000614482
0.000614533
0.000614591
0.000614657
0.000614731
0.000614815
0.000614907
0.000615008
0.000615117
0.000615236
0.000615363
0.000615499
0.000615645
0.000615799
0.000615964
0.000616137
0.00061632
0.000616513
0.000616715
0.000616927
0.000617148
0.000617378
0.000617615
0.000617861
0.000614528
0.000614566
0.000614615
0.000614671
0.000614736
0.000614809
0.000614891
0.000614982
0.000615081
0.000615189
0.000615305
0.00061543
0.000615563
0.000615705
0.000615855
0.000616015
0.000616183
0.000616359
0.000616545
0.000616739
0.000616941
0.000617152
0.00061737
0.000617596
0.000617829
0.000614605
0.000614642
0.000614689
0.000614744
0.000614807
0.000614879
0.000614959
0.000615048
0.000615145
0.000615251
0.000615365
0.000615486
0.000615616
0.000615754
0.0006159
0.000616055
0.000616217
0.000616387
0.000616565
0.000616751
0.000616944
0.000617145
0.000617353
0.000617567
0.000617787
0.000614676
0.00061471
0.000614756
0.000614809
0.00061487
0.00061494
0.000615019
0.000615106
0.000615201
0.000615304
0.000615415
0.000615534
0.00061566
0.000615794
0.000615936
0.000616085
0.000616241
0.000616405
0.000616576
0.000616754
0.000616938
0.000617129
0.000617326
0.000617529
0.000617737
0.000614739
0.000614772
0.000614815
0.000614867
0.000614926
0.000614995
0.000615071
0.000615156
0.000615249
0.00061535
0.000615458
0.000615574
0.000615696
0.000615826
0.000615963
0.000616107
0.000616257
0.000616414
0.000616578
0.000616748
0.000616924
0.000617106
0.000617293
0.000617485
0.000617681
0.000614795
0.000614827
0.000614869
0.000614918
0.000614976
0.000615042
0.000615117
0.0006152
0.00061529
0.000615388
0.000615494
0.000615606
0.000615725
0.00061585
0.000615982
0.000616121
0.000616266
0.000616416
0.000616573
0.000616735
0.000616903
0.000617075
0.000617253
0.000617434
0.00061762
0.000614846
0.000614876
0.000614916
0.000614963
0.00061502
0.000615084
0.000615157
0.000615237
0.000615325
0.000615421
0.000615523
0.000615632
0.000615747
0.000615868
0.000615995
0.000616129
0.000616267
0.000616412
0.000616561
0.000616716
0.000616876
0.00061704
0.000617208
0.00061738
0.000617555
0.000614891
0.000614919
0.000614957
0.000615003
0.000615058
0.00061512
0.000615191
0.000615269
0.000615355
0.000615447
0.000615546
0.000615651
0.000615763
0.00061588
0.000616002
0.00061613
0.000616264
0.000616402
0.000616545
0.000616692
0.000616844
0.000617
0.000617159
0.000617321
0.000617486
0.00061493
0.000614957
0.000614994
0.000615038
0.000615091
0.000615151
0.00061522
0.000615296
0.000615379
0.000615469
0.000615564
0.000615666
0.000615774
0.000615886
0.000616004
0.000616127
0.000616255
0.000616387
0.000616524
0.000616664
0.000616808
0.000616956
0.000617107
0.00061726
0.000617416
0.000614965
0.00061499
0.000615025
0.000615068
0.000615119
0.000615178
0.000615244
0.000615318
0.000615399
0.000615485
0.000615578
0.000615677
0.00061578
0.000615889
0.000616002
0.00061612
0.000616242
0.000616369
0.000616499
0.000616632
0.000616769
0.000616909
0.000617052
0.000617197
0.000617344
0.000614995
0.000615019
0.000615053
0.000615094
0.000615144
0.000615201
0.000615265
0.000615337
0.000615415
0.000615499
0.000615588
0.000615683
0.000615783
0.000615888
0.000615997
0.00061611
0.000616227
0.000616347
0.000616471
0.000616598
0.000616728
0.000616861
0.000616996
0.000617133
0.000617271
0.000615021
0.000615045
0.000615077
0.000615117
0.000615165
0.00061522
0.000615282
0.000615352
0.000615427
0.000615508
0.000615595
0.000615687
0.000615783
0.000615884
0.000615988
0.000616096
0.000616208
0.000616323
0.000616441
0.000616562
0.000616686
0.000616812
0.000616939
0.000617068
0.000617198
0.000615044
0.000615066
0.000615098
0.000615136
0.000615182
0.000615236
0.000615297
0.000615364
0.000615437
0.000615516
0.000615599
0.000615688
0.00061578
0.000615877
0.000615977
0.000616081
0.000616188
0.000616298
0.00061641
0.000616525
0.000616642
0.000616761
0.000616882
0.000617004
0.000617126
0.000615064
0.000615085
0.000615116
0.000615153
0.000615198
0.00061525
0.000615309
0.000615374
0.000615445
0.000615521
0.000615602
0.000615687
0.000615776
0.000615869
0.000615965
0.000616064
0.000616166
0.000616271
0.000616378
0.000616487
0.000616598
0.000616711
0.000616825
0.00061694
0.000617055
0.000615081
0.000615102
0.000615131
0.000615167
0.000615211
0.000615261
0.000615319
0.000615382
0.00061545
0.000615524
0.000615602
0.000615684
0.00061577
0.000615859
0.000615952
0.000616046
0.000616144
0.000616244
0.000616346
0.000616449
0.000616555
0.000616661
0.000616769
0.000616877
0.000616986
0.000615095
0.000615116
0.000615144
0.00061518
0.000615222
0.000615272
0.000615327
0.000615388
0.000615455
0.000615526
0.000615602
0.000615681
0.000615764
0.000615849
0.000615937
0.000616028
0.000616121
0.000616216
0.000616313
0.000616412
0.000616512
0.000616612
0.000616714
0.000616816
0.000616918
0.000615108
0.000615128
0.000615156
0.000615191
0.000615232
0.000615281
0.000615335
0.000615394
0.000615459
0.000615528
0.000615601
0.000615677
0.000615757
0.000615839
0.000615923
0.00061601
0.000616099
0.00061619
0.000616282
0.000616375
0.000616469
0.000616565
0.000616661
0.000616757
0.000616853
0.000615119
0.000615139
0.000615167
0.000615201
0.000615242
0.000615289
0.000615342
0.0006154
0.000615463
0.000615529
0.0006156
0.000615673
0.00061575
0.000615829
0.00061591
0.000615993
0.000616077
0.000616163
0.000616251
0.000616339
0.000616429
0.000616519
0.000616609
0.0006167
0.000616791
0.000615129
0.000615149
0.000615177
0.000615211
0.000615251
0.000615297
0.000615349
0.000615406
0.000615467
0.000615531
0.000615599
0.00061567
0.000615744
0.000615819
0.000615897
0.000615976
0.000616057
0.000616139
0.000616222
0.000616306
0.00061639
0.000616475
0.000616561
0.000616646
0.000616731
0.000615137
0.000615158
0.000615186
0.00061522
0.00061526
0.000615306
0.000615357
0.000615412
0.000615471
0.000615534
0.0006156
0.000615668
0.000615739
0.000615811
0.000615885
0.000615961
0.000616037
0.000616115
0.000616194
0.000616274
0.000616354
0.000616434
0.000616514
0.000616595
0.000616675
0.000615146
0.000615167
0.000615196
0.000615231
0.00061527
0.000615316
0.000615366
0.00061542
0.000615478
0.000615538
0.000615602
0.000615668
0.000615735
0.000615805
0.000615875
0.000615947
0.00061602
0.000616094
0.000616169
0.000616244
0.000616319
0.000616395
0.000616471
0.000616546
0.000616622
0.000615154
0.000615177
0.000615207
0.000615242
0.000615282
0.000615327
0.000615376
0.000615429
0.000615485
0.000615545
0.000615606
0.000615669
0.000615734
0.0006158
0.000615868
0.000615936
0.000616005
0.000616075
0.000616146
0.000616216
0.000616288
0.000616359
0.00061643
0.000616502
0.000616572
0.000615162
0.000615187
0.000615218
0.000615254
0.000615295
0.00061534
0.000615389
0.000615441
0.000615496
0.000615553
0.000615612
0.000615673
0.000615735
0.000615798
0.000615862
0.000615927
0.000615993
0.000616059
0.000616125
0.000616192
0.000616259
0.000616326
0.000616393
0.00061646
0.000616526
0.000615172
0.000615198
0.000615232
0.000615269
0.00061531
0.000615356
0.000615404
0.000615456
0.000615509
0.000615565
0.000615622
0.00061568
0.000615739
0.000615799
0.00061586
0.000615921
0.000615983
0.000616045
0.000616107
0.00061617
0.000616233
0.000616296
0.000616359
0.000616422
0.000616484
0.000615182
0.000615211
0.000615247
0.000615287
0.000615329
0.000615375
0.000615423
0.000615474
0.000615526
0.00061558
0.000615635
0.000615691
0.000615747
0.000615803
0.000615861
0.000615918
0.000615976
0.000616034
0.000616093
0.000616152
0.000616211
0.00061627
0.000616329
0.000616387
0.000616446
0.000615194
0.000615227
0.000615266
0.000615308
0.000615352
0.000615398
0.000615447
0.000615497
0.000615548
0.0006156
0.000615652
0.000615705
0.000615758
0.000615811
0.000615865
0.000615919
0.000615973
0.000616027
0.000616081
0.000616136
0.000616191
0.000616246
0.000616301
0.000616356
0.000616411
0.000615209
0.000615246
0.000615289
0.000615333
0.000615379
0.000615427
0.000615475
0.000615525
0.000615574
0.000615624
0.000615674
0.000615724
0.000615774
0.000615823
0.000615873
0.000615923
0.000615972
0.000616023
0.000616073
0.000616124
0.000616175
0.000616226
0.000616277
0.000616329
0.00061638
0.000615227
0.000615269
0.000615317
0.000615364
0.000615413
0.000615461
0.00061551
0.000615559
0.000615607
0.000615655
0.000615701
0.000615748
0.000615794
0.000615839
0.000615885
0.00061593
0.000615976
0.000616022
0.000616068
0.000616114
0.000616161
0.000616209
0.000616256
0.000616305
0.000616353
0.000615248
0.000615296
0.00061535
0.000615402
0.000615453
0.000615503
0.000615552
0.0006156
0.000615646
0.000615691
0.000615735
0.000615777
0.000615819
0.00061586
0.000615901
0.000615942
0.000615983
0.000616024
0.000616066
0.000616108
0.000616151
0.000616194
0.000616239
0.000616283
0.000616328
0.000615275
0.00061533
0.000615391
0.000615448
0.000615502
0.000615554
0.000615603
0.00061565
0.000615693
0.000615735
0.000615775
0.000615813
0.00061585
0.000615886
0.000615922
0.000615958
0.000615993
0.00061603
0.000616067
0.000616105
0.000616143
0.000616183
0.000616223
0.000616265
0.000616307
0.000615308
0.000615372
0.000615442
0.000615504
0.000615562
0.000615615
0.000615664
0.000615709
0.00061575
0.000615787
0.000615822
0.000615855
0.000615887
0.000615917
0.000615947
0.000615977
0.000616007
0.000616039
0.000616071
0.000616104
0.000616138
0.000616174
0.000616211
0.000616249
0.000616288
0.000615348
0.000615424
0.000615503
0.000615572
0.000615634
0.000615688
0.000615737
0.000615779
0.000615816
0.000615848
0.000615878
0.000615904
0.000615929
0.000615953
0.000615977
0.000616
0.000616025
0.00061605
0.000616077
0.000616105
0.000616135
0.000616167
0.0006162
0.000616235
0.000616271
0.000615399
0.000615487
0.000615578
0.000615655
0.000615721
0.000615776
0.000615823
0.000615862
0.000615893
0.00061592
0.000615942
0.000615961
0.000615978
0.000615994
0.000616011
0.000616027
0.000616045
0.000616064
0.000616085
0.000616108
0.000616133
0.000616161
0.00061619
0.000616222
0.000616256
0.000615461
0.000615565
0.000615671
0.000615756
0.000615826
0.000615882
0.000615926
0.000615959
0.000615984
0.000616002
0.000616015
0.000616025
0.000616033
0.000616041
0.000616048
0.000616057
0.000616068
0.00061608
0.000616095
0.000616112
0.000616133
0.000616156
0.000616182
0.000616211
0.000616242
0.000615539
0.000615663
0.000615785
0.00061588
0.000615953
0.000616008
0.000616047
0.000616073
0.000616088
0.000616095
0.000616098
0.000616097
0.000616094
0.000616091
0.000616089
0.000616089
0.000616092
0.000616097
0.000616105
0.000616117
0.000616133
0.000616151
0.000616174
0.000616199
0.000616228
0.000615637
0.000615785
0.000615927
0.000616032
0.000616107
0.000616159
0.00061619
0.000616205
0.000616207
0.000616201
0.00061619
0.000616175
0.00061616
0.000616146
0.000616133
0.000616123
0.000616117
0.000616114
0.000616116
0.000616122
0.000616132
0.000616146
0.000616165
0.000616188
0.000616214
0.000615762
0.000615939
0.000616104
0.000616219
0.000616295
0.000616339
0.000616358
0.000616357
0.000616343
0.000616319
0.000616291
0.000616261
0.000616231
0.000616203
0.000616178
0.000616158
0.000616142
0.000616131
0.000616125
0.000616125
0.00061613
0.00061614
0.000616155
0.000616175
0.000616199
0.000615921
0.000616135
0.000616327
0.000616451
0.000616523
0.000616554
0.000616554
0.000616532
0.000616495
0.00061645
0.000616401
0.000616352
0.000616305
0.000616261
0.000616223
0.000616191
0.000616165
0.000616146
0.000616133
0.000616126
0.000616126
0.000616131
0.000616142
0.000616159
0.000616182
0.000616129
0.000616388
0.000616612
0.000616741
0.0006168
0.000616809
0.000616782
0.00061673
0.000616664
0.000616591
0.000616517
0.000616446
0.000616379
0.000616319
0.000616267
0.000616222
0.000616186
0.000616157
0.000616137
0.000616124
0.000616118
0.000616119
0.000616127
0.000616142
0.000616162
0.000616408
0.000616722
0.000616978
0.000617104
0.000617138
0.000617111
0.000617043
0.000616951
0.000616848
0.000616741
0.000616637
0.00061654
0.000616452
0.000616374
0.000616306
0.000616248
0.000616201
0.000616164
0.000616136
0.000616117
0.000616106
0.000616103
0.000616108
0.00061612
0.000616139
0.000616791
0.00061717
0.000617455
0.00061756
0.000617548
0.000617464
0.00061734
0.000617194
0.000617043
0.000616895
0.000616757
0.000616631
0.000616519
0.000616422
0.000616338
0.000616268
0.00061621
0.000616164
0.000616129
0.000616105
0.000616089
0.000616083
0.000616085
0.000616094
0.000616111
0.000617343
0.000617787
0.000618086
0.000618136
0.000618042
0.000617873
0.000617668
0.000617453
0.000617243
0.000617047
0.00061687
0.000616713
0.000616576
0.000616459
0.00061636
0.000616278
0.00061621
0.000616156
0.000616115
0.000616085
0.000616066
0.000616056
0.000616056
0.000616063
0.000616079
0.000618179
0.000618661
0.000618925
0.000618861
0.00061863
0.000618333
0.00061802
0.000617717
0.000617437
0.000617187
0.000616968
0.000616779
0.000616618
0.000616483
0.000616369
0.000616275
0.000616199
0.000616139
0.000616093
0.000616059
0.000616036
0.000616024
0.000616021
0.000616027
0.000616042
0.000619503
0.000619924
0.000620047
0.00061976
0.000619311
0.000618834
0.000618378
0.000617968
0.00061761
0.000617302
0.000617042
0.000616822
0.000616639
0.000616487
0.000616361
0.000616259
0.000616176
0.000616111
0.00061606
0.000616023
0.000615998
0.000615984
0.00061598
0.000615985
0.000615999
0.000621669
0.000621773
0.000621525
0.000620841
0.000620061
0.000619337
0.00061871
0.000618181
0.000617741
0.000617377
0.000617079
0.000616833
0.000616632
0.000616468
0.000616334
0.000616225
0.000616138
0.00061607
0.000616018
0.000615979
0.000615953
0.000615938
0.000615933
0.000615938
0.000615951
0.00062561
0.000624624
0.000623413
0.000622036
0.000620792
0.00061977
0.000618955
0.000618308
0.000617796
0.000617389
0.000617063
0.000616801
0.00061659
0.00061642
0.000616282
0.000616172
0.000616084
0.000616015
0.000615963
0.000615924
0.000615899
0.000615884
0.000615879
0.000615883
0.000615896
0.00063452
0.0006294
0.000625649
0.000623136
0.000621321
0.000619989
0.000619011
0.000618284
0.000617733
0.000617307
0.000616975
0.000616712
0.000616502
0.000616334
0.0006162
0.000616093
0.000616008
0.000615942