/*--------------------------------*- C++ -*----------------------------------*\
  =========                 |
  \\      /  F ield         | OpenFOAM: The Open Source CFD Toolbox
   \\    /   O peration     | Website:  https://openfoam.org
    \\  /    A nd           | Version:  13
     \\/     M anipulation  |
\*---------------------------------------------------------------------------*/
FoamFile
{
    format      ascii;
    class       volScalarField;
    location    "4";
    object      p;
}
// * * * * * * * * * * * * * * * * * * * * * * * * * * * * * * * * * * * * * //

dimensions      [0 2 -2 0 0 0 0];

internalField   nonuniform List<scalar> 
6440
(
121.883
121.883
121.883
121.883
121.883
121.883
121.883
121.883
121.883
121.883
121.884
121.884
121.884
121.885
121.885
121.886
121.886
121.886
121.887
121.887
121.887
121.887
121.886
121.885
121.885
121.883
121.883
121.883
121.883
121.883
121.882
121.882
121.882
121.883
121.883
121.883
121.883
121.884
121.884
121.884
121.885
121.885
121.885
121.886
121.886
121.885
121.885
121.884
121.883
121.882
121.882
121.882
121.882
121.882
121.882
121.881
121.881
121.881
121.882
121.882
121.882
121.882
121.883
121.883
121.883
121.884
121.884
121.884
121.884
121.884
121.884
121.883
121.881
121.879
121.878
121.881
121.881
121.881
121.881
121.88
121.88
121.88
121.88
121.88
121.881
121.881
121.881
121.882
121.882
121.882
121.882
121.882
121.882
121.882
121.882
121.882
121.88
121.878
121.876
121.874
121.88
121.88
121.88
121.879
121.879
121.879
121.879
121.879
121.879
121.879
121.88
121.88
121.88
121.881
121.881
121.881
121.881
121.88
121.88
121.88
121.879
121.878
121.875
121.872
121.869
121.878
121.878
121.878
121.878
121.878
121.878
121.877
121.878
121.878
121.878
121.878
121.879
121.879
121.879
121.879
121.879
121.878
121.878
121.877
121.877
121.876
121.874
121.871
121.867
121.865
121.877
121.876
121.876
121.876
121.876
121.876
121.876
121.876
121.876
121.876
121.877
121.877
121.877
121.877
121.877
121.877
121.876
121.875
121.874
121.873
121.872
121.87
121.867
121.863
121.86
121.874
121.874
121.874
121.874
121.874
121.874
121.873
121.874
121.874
121.875
121.875
121.876
121.876
121.875
121.875
121.874
121.873
121.872
121.871
121.869
121.868
121.866
121.862
121.858
121.855
121.872
121.872
121.872
121.872
121.871
121.871
121.871
121.871
121.872
121.873
121.874
121.874
121.874
121.873
121.872
121.871
121.87
121.868
121.867
121.865
121.863
121.861
121.857
121.853
121.85
121.868
121.868
121.868
121.868
121.868
121.868
121.868
121.869
121.87
121.871
121.872
121.872
121.872
121.871
121.869
121.868
121.866
121.864
121.862
121.86
121.858
121.855
121.852
121.847
121.844
121.864
121.864
121.864
121.864
121.864
121.865
121.865
121.867
121.868
121.87
121.87
121.87
121.869
121.867
121.865
121.864
121.862
121.86
121.858
121.856
121.853
121.85
121.846
121.842
121.839
121.858
121.858
121.859
121.859
121.86
121.861
121.862
121.865
121.866
121.867
121.867
121.866
121.864
121.862
121.861
121.859
121.857
121.855
121.853
121.85
121.847
121.844
121.84
121.836
121.834
121.85
121.851
121.851
121.852
121.854
121.856
121.859
121.861
121.862
121.862
121.861
121.86
121.858
121.856
121.855
121.854
121.852
121.85
121.847
121.844
121.841
121.838
121.834
121.83
121.827
121.84
121.84
121.841
121.843
121.846
121.85
121.853
121.855
121.856
121.855
121.853
121.852
121.85
121.849
121.848
121.846
121.845
121.843
121.84
121.837
121.834
121.83
121.826
121.823
121.819
121.825
121.826
121.828
121.831
121.836
121.841
121.845
121.846
121.846
121.845
121.843
121.842
121.841
121.84
121.839
121.837
121.836
121.834
121.831
121.828
121.825
121.821
121.818
121.813
121.806
121.806
121.807
121.811
121.816
121.823
121.829
121.832
121.834
121.834
121.833
121.832
121.831
121.83
121.829
121.828
121.827
121.825
121.823
121.82
121.817
121.814
121.81
121.806
121.799
121.786
121.78
121.783
121.789
121.797
121.805
121.811
121.816
121.818
121.818
121.818
121.818
121.819
121.818
121.818
121.816
121.815
121.813
121.811
121.808
121.805
121.8
121.796
121.788
121.775
121.75
121.747
121.751
121.759
121.77
121.78
121.788
121.793
121.795
121.796
121.798
121.8
121.802
121.803
121.803
121.803
121.801
121.8
121.797
121.794
121.789
121.783
121.775
121.761
121.737
121.689
121.704
121.709
121.72
121.732
121.745
121.753
121.759
121.761
121.763
121.766
121.771
121.777
121.781
121.784
121.784
121.784
121.782
121.781
121.776
121.769
121.757
121.741
121.71
121.665
121.563
121.645
121.652
121.663
121.678
121.691
121.701
121.707
121.709
121.713
121.72
121.73
121.74
121.749
121.753
121.756
121.758
121.758
121.756
121.75
121.739
121.721
121.692
121.637
121.562
121.313
121.567
121.574
121.587
121.603
121.618
121.627
121.633
121.638
121.645
121.656
121.67
121.685
121.698
121.706
121.712
121.715
121.715
121.711
121.702
121.684
121.652
121.6
121.494
121.292
120.689
121.463
121.471
121.483
121.5
121.514
121.523
121.528
121.534
121.545
121.562
121.584
121.607
121.626
121.64
121.648
121.654
121.655
121.65
121.638
121.614
121.572
121.5
121.372
121.145
120.767
121.33
121.337
121.348
121.362
121.376
121.381
121.384
121.393
121.41
121.437
121.47
121.502
121.53
121.55
121.563
121.571
121.573
121.568
121.552
121.522
121.47
121.387
121.258
121.054
120.785
121.16
121.164
121.17
121.183
121.189
121.189
121.19
121.202
121.229
121.269
121.316
121.364
121.403
121.432
121.452
121.464
121.469
121.464
121.446
121.411
121.354
121.265
121.135
120.95
120.708
120.945
120.944
120.943
120.944
120.945
120.934
120.929
120.945
120.986
121.047
121.117
121.184
121.241
121.282
121.312
121.331
121.34
121.336
121.318
121.281
121.221
121.13
121.004
120.834
120.623
120.677
120.667
120.652
120.642
120.623
120.597
120.582
120.603
120.664
120.756
120.857
120.956
121.036
121.096
121.139
121.169
121.185
121.186
121.169
121.132
121.071
120.983
120.862
120.706
120.517
120.352
120.33
120.297
120.258
120.215
120.159
120.124
120.147
120.238
120.378
120.53
120.669
120.784
120.871
120.934
120.978
121.004
121.011
120.999
120.965
120.907
120.821
120.708
120.563
120.391
119.973
119.934
119.874
119.803
119.707
119.601
119.531
119.551
119.681
119.896
120.12
120.323
120.484
120.606
120.696
120.759
120.799
120.816
120.81
120.781
120.727
120.647
120.539
120.405
120.246
119.552
119.492
119.4
119.274
119.111
118.923
118.797
118.798
118.976
119.297
119.632
119.914
120.138
120.306
120.429
120.516
120.572
120.601
120.604
120.581
120.533
120.459
120.359
120.232
120.084
119.116
119.03
118.898
118.716
118.462
118.167
117.951
117.912
118.139
118.599
119.075
119.463
119.76
119.98
120.14
120.254
120.329
120.371
120.385
120.37
120.328
120.26
120.166
120.048
119.906
118.699
118.586
118.416
118.176
117.833
117.419
117.099
117.007
117.265
117.864
118.502
118.998
119.371
119.645
119.843
119.982
120.076
120.133
120.156
120.15
120.115
120.053
119.965
119.852
119.716
118.345
118.206
118.003
117.723
117.32
116.819
116.434
116.308
116.551
117.226
117.98
118.565
119.002
119.32
119.549
119.711
119.822
119.892
119.925
119.926
119.897
119.841
119.757
119.649
119.517
118.089
117.936
117.71
117.418
117.007
116.496
116.116
116.009
116.191
116.811
117.581
118.21
118.682
119.026
119.275
119.453
119.576
119.654
119.695
119.702
119.678
119.626
119.546
119.44
119.311
117.957
117.804
117.566
117.288
116.93
116.486
116.141
116.026
116.144
116.64
117.347
117.962
118.433
118.779
119.032
119.215
119.344
119.428
119.472
119.483
119.462
119.412
119.334
119.231
119.102
117.952
117.809
117.569
117.319
117.036
116.692
116.393
116.26
116.322
116.695
117.289
117.835
118.264
118.587
118.828
119.006
119.133
119.216
119.261
119.272
119.252
119.202
119.125
119.021
118.892
118.054
117.923
117.69
117.459
117.234
116.97
116.735
116.609
116.635
116.908
117.366
117.809
118.168
118.448
118.665
118.828
118.946
119.023
119.064
119.072
119.05
119
118.921
118.817
118.685
118.225
118.105
117.88
117.653
117.449
117.244
117.075
116.981
116.995
117.187
117.507
117.845
118.124
118.354
118.538
118.68
118.783
118.85
118.883
118.886
118.86
118.806
118.726
118.618
118.484
118.432
118.31
118.091
117.864
117.666
117.503
117.39
117.322
117.335
117.46
117.664
117.903
118.113
118.294
118.443
118.559
118.643
118.696
118.72
118.715
118.683
118.624
118.538
118.428
118.291
118.639
118.508
118.29
118.069
117.876
117.737
117.649
117.6
117.617
117.684
117.808
117.972
118.121
118.256
118.371
118.461
118.524
118.562
118.573
118.559
118.519
118.454
118.364
118.248
118.108
118.827
118.691
118.468
118.244
118.051
117.914
117.836
117.806
117.829
117.849
117.927
118.032
118.136
118.234
118.317
118.381
118.424
118.445
118.443
118.418
118.369
118.297
118.201
118.082
117.936
118.968
118.848
118.619
118.384
118.174
118.029
117.949
117.94
117.963
117.953
118.005
118.078
118.152
118.22
118.277
118.317
118.341
118.345
118.329
118.292
118.234
118.155
118.053
117.927
117.778
119.06
118.97
118.741
118.488
118.266
118.104
118.009
118.007
118.021
118.014
118.061
118.114
118.168
118.213
118.247
118.267
118.271
118.259
118.23
118.182
118.114
118.027
117.917
117.788
117.633
119.109
119.053
118.838
118.589
118.354
118.188
118.07
118.051
118.051
118.06
118.105
118.153
118.189
118.215
118.228
118.229
118.216
118.188
118.145
118.085
118.008
117.913
117.798
117.661
117.504
119.129
119.102
118.921
118.687
118.476
118.296
118.183
118.126
118.097
118.114
118.165
118.199
118.22
118.227
118.221
118.203
118.173
118.131
118.074
118.003
117.917
117.814
117.692
117.552
117.389
119.133
119.125
118.992
118.809
118.639
118.461
118.332
118.254
118.194
118.208
118.246
118.268
118.266
118.251
118.225
118.189
118.143
118.086
118.017
117.935
117.839
117.728
117.601
117.455
117.29
119.133
119.123
119.046
118.935
118.852
118.715
118.542
118.439
118.358
118.353
118.369
118.356
118.327
118.288
118.241
118.186
118.124
118.053
117.971
117.879
117.774
117.656
117.522
117.374
117.205
119.135
119.098
119.058
119.061
119.077
118.996
118.822
118.719
118.605
118.554
118.519
118.466
118.401
118.334
118.265
118.192
118.114
118.029
117.937
117.834
117.721
117.596
117.458
117.303
117.134
119.146
119.076
119.055
119.154
119.282
119.283
119.176
119.086
118.909
118.777
118.683
118.578
118.479
118.386
118.295
118.204
118.112
118.014
117.911
117.799
117.678
117.547
117.403
117.246
117.073
119.176
119.082
119.069
119.222
119.45
119.576
119.586
119.47
119.204
118.988
118.83
118.685
118.554
118.436
118.326
118.219
118.113
118.004
117.891
117.771
117.643
117.506
117.358
117.197
117.023
119.23
119.118
119.107
119.279
119.591
119.847
119.977
119.783
119.433
119.157
118.951
118.772
118.617
118.479
118.353
118.233
118.115
117.997
117.875
117.748
117.613
117.471
117.318
117.155
116.98
119.31
119.179
119.165
119.352
119.731
120.074
120.227
119.942
119.56
119.265
119.031
118.833
118.661
118.51
118.372
118.242
118.115
117.988
117.859
117.726
117.586
117.439
117.283
117.118
116.942
119.411
119.273
119.239
119.442
119.846
120.212
120.233
119.92
119.575
119.296
119.062
118.861
118.685
118.527
118.381
118.244
118.11
117.977
117.842
117.704
117.56
117.408
117.249
117.082
116.907
119.514
119.381
119.326
119.516
119.868
120.125
120.068
119.797
119.511
119.269
119.055
118.863
118.689
118.529
118.38
118.237
118.099
117.961
117.821
117.679
117.531
117.377
117.215
117.047
116.872
119.592
119.471
119.377
119.467
119.737
119.884
119.818
119.625
119.415
119.214
119.024
118.846
118.677
118.519
118.368
118.223
118.08
117.939
117.796
117.65
117.499
117.343
117.18
117.011
116.838
119.635
119.513
119.342
119.361
119.49
119.63
119.603
119.476
119.317
119.151
118.984
118.818
118.656
118.5
118.348
118.201
118.056
117.911
117.766
117.617
117.465
117.308
117.144
116.977
116.806
119.625
119.487
119.292
119.277
119.362
119.464
119.446
119.357
119.234
119.094
118.944
118.788
118.631
118.476
118.324
118.175
118.027
117.881
117.733
117.584
117.431
117.273
117.112
116.946
116.778
119.565
119.437
119.296
119.248
119.329
119.376
119.353
119.28
119.175
119.049
118.909
118.76
118.606
118.452
118.299
118.148
117.999
117.851
117.702
117.552
117.4
117.244
117.086
116.924
116.76
119.491
119.403
119.333
119.307
119.343
119.336
119.307
119.237
119.138
119.019
118.885
118.738
118.587
118.433
118.279
118.127
117.976
117.827
117.678
117.529
117.378
117.226
117.072
116.916
116.756
119.437
119.398
119.383
119.39
119.372
119.328
119.287
119.216
119.119
119.002
118.869
118.727
118.575
118.422
118.267
118.114
117.963
117.814
117.666
117.519
117.372
117.225
117.077
116.926
116.774
119.404
119.4
119.429
119.44
119.388
119.337
119.284
119.208
119.11
118.995
118.865
118.723
118.574
118.422
118.268
118.116
117.966
117.818
117.672
117.528
117.386
117.245
117.103
116.963
116.815
119.392
119.407
119.445
119.449
119.384
119.341
119.284
119.204
119.106
118.993
118.865
118.728
118.583
118.434
118.283
118.133
117.986
117.841
117.699
117.559
117.423
117.289
117.158
117.021
116.884
119.398
119.417
119.437
119.425
119.374
119.337
119.277
119.196
119.1
118.989
118.868
118.736
118.598
118.455
118.311
118.166
118.023
117.883
117.746
117.613
117.483
117.357
117.231
117.108
116.972
119.414
119.434
119.438
119.404
119.365
119.324
119.26
119.178
119.084
118.98
118.865
118.743
118.614
118.481
118.346
118.209
118.074
117.94
117.81
117.683
117.56
117.441
117.326
117.203
117.079
119.426
119.456
119.453
119.387
119.348
119.296
119.226
119.144
119.053
118.955
118.852
118.741
118.625
118.505
118.381
118.255
118.129
118.003
117.88
117.761
117.645
117.533
117.419
117.308
117.183
119.437
119.466
119.449
119.36
119.307
119.245
119.171
119.089
119.002
118.912
118.819
118.722
118.621
118.515
118.405
118.292
118.177
118.061
117.946
117.834
117.723
117.615
117.509
117.395
117.278
119.45
119.467
119.423
119.323
119.248
119.173
119.093
119.01
118.928
118.846
118.765
118.681
118.595
118.505
118.41
118.31
118.206
118.1
117.994
117.887
117.782
117.677
117.569
117.461
117.343
119.461
119.468
119.387
119.279
119.178
119.084
118.996
118.912
118.833
118.759
118.687
118.616
118.543
118.468
118.387
118.3
118.207
118.111
118.011
117.911
117.809
117.705
117.599
117.487
117.373
119.471
119.47
119.344
119.225
119.098
118.986
118.888
118.802
118.725
118.656
118.592
118.53
118.468
118.404
118.334
118.258
118.175
118.087
117.994
117.898
117.798
117.695
117.586
117.474
117.361
119.468
119.461
119.293
119.156
119.016
118.889
118.783
118.693
118.616
118.549
118.489
118.431
118.376
118.319
118.258
118.189
118.114
118.032
117.944
117.851
117.753
117.649
117.54
117.428
117.316
119.449
119.431
119.238
119.091
118.941
118.806
118.694
118.6
118.521
118.453
118.392
118.336
118.282
118.227
118.169
118.105
118.033
117.955
117.871
117.78
117.684
117.58
117.471
117.359
117.251
119.422
119.391
119.192
119.04
118.888
118.752
118.636
118.538
118.455
118.382
118.317
118.258
118.201
118.144
118.085
118.021
117.951
117.874
117.792
117.703
117.608
117.506
117.399
117.291
117.185
119.402
119.353
119.165
119.013
118.868
118.734
118.617
118.516
118.427
118.348
118.277
118.21
118.148
118.085
118.021
117.954
117.883
117.807
117.725
117.638
117.545
117.446
117.343
117.239
117.139
119.382
119.32
119.157
119.016
118.879
118.753
118.639
118.535
118.442
118.356
118.276
118.203
118.131
118.06
117.99
117.918
117.844
117.767
117.685
117.6
117.509
117.414
117.317
117.22
117.126
119.365
119.297
119.162
119.035
118.918
118.802
118.693
118.589
118.491
118.399
118.313
118.229
118.15
118.072
117.994
117.917
117.839
117.76
117.679
117.595
117.507
117.418
117.327
117.238
117.149
119.346
119.274
119.168
119.066
118.964
118.864
118.763
118.661
118.561
118.464
118.371
118.283
118.195
118.11
118.026
117.944
117.864
117.783
117.702
117.619
117.535
117.451
117.367
117.283
117.202
119.321
119.249
119.169
119.086
119.007
118.92
118.828
118.731
118.631
118.532
118.437
118.341
118.249
118.159
118.072
117.986
117.904
117.822
117.742
117.661
117.58
117.5
117.421
117.346
117.267
119.279
119.214
119.153
119.091
119.025
118.953
118.872
118.781
118.685
118.586
118.487
118.392
118.296
118.204
118.114
118.027
117.943
117.862
117.782
117.703
117.625
117.549
117.476
117.402
117.33
119.226
119.17
119.122
119.068
119.018
118.956
118.884
118.801
118.709
118.612
118.516
118.418
118.323
118.23
118.14
118.053
117.97
117.889
117.81
117.733
117.658
117.585
117.514
117.446
117.375
119.161
119.115
119.072
119.027
118.98
118.928
118.865
118.789
118.703
118.61
118.515
118.421
118.327
118.235
118.146
118.061
117.978
117.899
117.822
117.746
117.673
117.602
117.534
117.466
117.401
119.092
119.051
119.013
118.968
118.927
118.879
118.822
118.753
118.673
118.586
118.496
118.403
118.313
118.223
118.136
118.052
117.972
117.894
117.818
117.745
117.674
117.605
117.537
117.474
117.409
119.017
118.982
118.946
118.905
118.864
118.82
118.768
118.705
118.632
118.551
118.464
118.377
118.289
118.203
118.119
118.037
117.958
117.882
117.809
117.737
117.668
117.601
117.537
117.473
117.412
118.941
118.911
118.88
118.841
118.804
118.761
118.713
118.655
118.588
118.512
118.433
118.349
118.265
118.183
118.102
118.022
117.946
117.872
117.801
117.731
117.664
117.599
117.536
117.477
117.416
118.865
118.84
118.815
118.782
118.746
118.705
118.66
118.607
118.545
118.476
118.4
118.323
118.244
118.165
118.088
118.012
117.938
117.867
117.797
117.73
117.665
117.603
117.544
117.484
117.427
118.79
118.771
118.752
118.722
118.691
118.652
118.609
118.559
118.502
118.438
118.369
118.297
118.223
118.149
118.076
118.003
117.933
117.864
117.797
117.733
117.671
117.611
117.553
117.497
117.44
118.718
118.702
118.686
118.662
118.633
118.596
118.556
118.508
118.456
118.397
118.334
118.267
118.199
118.13
118.061
117.993
117.926
117.86
117.796
117.734
117.675
117.617
117.562
117.506
117.451
118.648
118.634
118.62
118.597
118.571
118.537
118.498
118.454
118.405
118.351
118.293
118.232
118.169
118.105
118.041
117.977
117.914
117.852
117.791
117.732
117.675
117.62
117.565
117.512
117.457
118.581
118.567
118.553
118.531
118.506
118.474
118.438
118.396
118.351
118.301
118.248
118.192
118.135
118.076
118.017
117.957
117.897
117.838
117.781
117.724
117.67
117.616
117.564
117.51
117.458
118.515
118.502
118.488
118.466
118.442
118.411
118.377
118.338
118.296
118.25
118.202
118.151
118.098
118.044
117.989
117.934
117.878
117.822
117.767
117.713
117.661
117.609
117.557
117.505
117.453
118.452
118.44
118.427
118.405
118.381
118.351
118.319
118.282
118.243
118.201
118.156
118.109
118.061
118.012
117.961
117.909
117.857
117.804
117.752
117.7
117.649
117.599
117.548
117.497
117.446
118.392
118.381
118.369
118.347
118.324
118.295
118.263
118.229
118.192
118.153
118.112
118.07
118.025
117.98
117.933
117.884
117.835
117.785
117.735
117.685
117.636
117.586
117.536
117.486
117.437
118.336
118.326
118.315
118.293
118.271
118.242
118.211
118.178
118.144
118.108
118.07
118.031
117.99
117.947
117.903
117.858
117.811
117.764
117.716
117.669
117.62
117.572
117.523
117.474
117.425
118.285
118.275
118.264
118.244
118.221
118.193
118.163
118.132
118.099
118.066
118.03
117.994
117.955
117.916
117.874
117.831
117.787
117.742
117.696
117.65
117.603
117.556
117.508
117.459
117.413
118.24
118.231
118.22
118.199
118.176
118.149
118.119
118.089
118.058
118.027
117.994
117.959
117.923
117.885
117.846
117.805
117.763
117.72
117.676
117.631
117.586
117.539
117.492
117.446
117.399
118.202
118.192
118.181
118.16
118.138
118.11
118.082
118.053
118.023
117.993
117.961
117.928
117.893
117.858
117.82
117.781
117.741
117.7
117.657
117.614
117.569
117.524
117.478
117.432
117.387
118.173
118.162
118.151
118.129
118.107
118.079
118.052
118.023
117.994
117.965
117.934
117.902
117.869
117.834
117.798
117.761
117.722
117.682
117.64
117.598
117.554
117.51
117.465
117.421
117.376
118.152
118.14
118.128
118.106
118.083
118.057
118.029
118.001
117.972
117.943
117.913
117.882
117.849
117.815
117.78
117.744
117.706
117.667
117.626
117.585
117.542
117.499
117.456
117.412
117.368
118.138
118.125
118.115
118.092
118.069
118.043
118.015
117.987
117.958
117.929
117.899
117.867
117.835
117.802
117.767
117.731
117.694
117.656
117.616
117.575
117.534
117.491
117.448
117.405
117.362
118.137
118.12
118.112
118.088
118.063
118.036
118.008
117.979
117.95
117.921
117.89
117.859
117.827
117.793
117.759
117.723
117.686
117.648
117.609
117.569
117.528
117.486
117.444
117.401
117.359
118.171
118.136
118.118
118.09
118.062
118.034
118.005
117.976
117.947
117.917
117.886
117.855
117.822
117.789
117.754
117.718
117.682
117.644
117.605
117.565
117.525
117.483
117.441
117.4
117.358
118.246
118.166
118.124
118.092
118.062
118.033
118.005
117.976
117.946
117.916
117.885
117.853
117.821
117.787
117.753
117.717
117.68
117.642
117.604
117.564
117.524
117.483
117.441
117.399
117.358
118.966
118.962
118.958
118.957
118.959
118.961
118.964
118.964
118.96
118.948
118.931
118.915
118.912
118.926
118.965
119.022
119.086
119.134
119.153
119.136
119.095
119.047
119.014
119.006
119.011
118.973
118.964
118.957
118.955
118.958
118.959
118.955
118.942
118.919
118.888
118.855
118.828
118.815
118.826
118.865
118.923
118.991
119.051
119.087
119.085
119.05
119.009
118.988
118.986
118.999
118.998
118.984
118.968
118.957
118.945
118.927
118.901
118.867
118.826
118.78
118.738
118.704
118.687
118.693
118.725
118.779
118.848
118.917
118.972
118.999
118.995
118.976
118.966
118.975
118.987
119.041
119.024
118.998
118.967
118.929
118.881
118.824
118.757
118.684
118.608
118.537
118.477
118.438
118.429
118.452
118.505
118.583
118.673
118.762
118.84
118.9
118.942
118.97
118.98
118.985
119.083
119.067
119.03
118.978
118.909
118.824
118.721
118.603
118.473
118.337
118.207
118.094
118.017
117.991
118.011
118.066
118.159
118.281
118.419
118.562
118.702
118.836
118.945
118.996
118.992
119.115
119.098
119.049
118.977
118.88
118.755
118.604
118.426
118.226
118.014
117.806
117.63
117.513
117.471
117.493
117.557
117.671
117.833
118.02
118.219
118.425
118.632
118.838
118.978
118.996
119.142
119.12
119.059
118.97
118.849
118.692
118.5
118.271
118.01
117.728
117.446
117.202
117.04
116.989
117.033
117.133
117.283
117.477
117.699
117.938
118.183
118.422
118.659
118.878
118.96
119.178
119.146
119.071
118.969
118.831
118.654
118.434
118.171
117.868
117.536
117.199
116.903
116.708
116.654
116.718
116.846
117.022
117.24
117.494
117.76
118.02
118.263
118.488
118.7
118.833
119.231
119.189
119.099
118.985
118.839
118.652
118.422
118.145
117.825
117.47
117.104
116.773
116.546
116.47
116.522
116.661
116.858
117.093
117.358
117.637
117.904
118.142
118.35
118.535
118.664
119.285
119.244
119.145
119.025
118.876
118.69
118.463
118.191
117.874
117.522
117.153
116.81
116.553
116.438
116.447
116.566
116.781
117.034
117.3
117.573
117.834
118.062
118.255
118.418
118.524
119.316
119.288
119.2
119.082
118.938
118.762
118.548
118.293
117.996
117.664
117.31
116.964
116.678
116.518
116.508
116.623
116.839
117.097
117.354
117.606
117.843
118.046
118.209
118.337
118.429
119.328
119.314
119.251
119.145
119.012
118.851
118.657
118.429
118.165
117.87
117.556
117.247
116.982
116.813
116.773
116.851
117.041
117.285
117.521
117.736
117.929
118.092
118.217
118.304
118.379
119.334
119.33
119.293
119.208
119.089
118.944
118.774
118.575
118.346
118.09
117.821
117.562
117.344
117.201
117.153
117.2
117.343
117.547
117.752
117.924
118.062
118.175
118.262
118.319
118.37
119.339
119.337
119.319
119.261
119.164
119.041
118.893
118.721
118.522
118.3
118.069
117.853
117.677
117.563
117.524
117.559
117.665
117.826
117.995
118.124
118.208
118.269
118.318
118.356
118.396
119.341
119.335
119.326
119.296
119.235
119.141
119.019
118.871
118.696
118.5
118.298
118.112
117.965
117.873
117.845
117.879
117.965
118.088
118.214
118.305
118.342
118.354
118.373
118.405
118.459
119.337
119.331
119.325
119.314
119.293
119.24
119.15
119.023
118.865
118.688
118.506
118.339
118.206
118.122
118.094
118.122
118.196
118.295
118.39
118.446
118.444
118.419
118.417
118.462
118.548
119.321
119.321
119.324
119.335
119.348
119.337
119.278
119.171
119.026
118.859
118.69
118.534
118.402
118.309
118.268
118.282
118.344
118.43
118.505
118.535
118.511
118.469
118.46
118.528
118.659
119.283
119.289
119.313
119.36
119.407
119.434
119.405
119.313
119.173
119.011
118.847
118.695
118.559
118.452
118.387
118.379
118.423
118.495
118.555
118.577
118.555
118.521
118.533
118.637
118.813
119.21
119.211
119.255
119.354
119.449
119.507
119.506
119.429
119.29
119.126
118.96
118.803
118.664
118.543
118.459
118.425
118.449
118.504
118.557
118.583
118.588
118.602
118.681
118.855
119.076
119.117
119.12
119.194
119.332
119.465
119.554
119.573
119.507
119.373
119.209
119.039
118.876
118.728
118.6
118.5
118.443
118.441
118.485
118.543
118.595
118.653
118.752
118.946
119.229
119.516
119.309
119.188
119.319
119.435
119.534
119.602
119.609
119.538
119.403
119.238
119.066
118.901
118.751
118.618
118.503
118.426
118.405
118.443
118.521
118.627
118.773
118.997
119.328
119.73
120.085
120.085
119.767
119.719
119.684
119.649
119.616
119.559
119.457
119.315
119.149
118.978
118.819
118.678
118.552
118.44
118.359
118.33
118.369
118.478
118.645
118.891
119.241
119.698
120.183
120.549
120.373
120.021
119.837
119.724
119.619
119.515
119.404
119.275
119.12
118.953
118.79
118.641
118.516
118.396
118.278
118.181
118.133
118.161
118.278
118.496
118.822
119.276
119.835
120.406
120.792
120.396
120.087
119.87
119.716
119.58
119.452
119.328
119.192
119.032
118.855
118.672
118.5
118.34
118.186
118.041
117.914
117.829
117.815
117.906
118.117
118.475
118.982
119.613
120.267
120.761
120.374
120.119
119.905
119.731
119.576
119.426
119.271
119.102
118.914
118.71
118.499
118.287
118.083
117.889
117.705
117.541
117.41
117.34
117.363
117.526
117.839
118.321
118.941
119.621
120.159
120.302
120.077
119.866
119.677
119.498
119.318
119.13
118.93
118.717
118.49
118.249
118.003
117.754
117.51
117.275
117.055
116.859
116.707
116.64
116.686
116.889
117.247
117.744
118.324
118.909
120.198
119.993
119.788
119.59
119.394
119.193
118.983
118.76
118.523
118.267
117.994
117.702
117.402
117.097
116.794
116.494
116.204
115.938
115.719
115.594
115.569
115.656
115.805
115.986
116.151
120.067
119.875
119.675
119.471
119.262
119.044
118.813
118.566
118.299
118.009
117.693
117.356
116.998
116.624
116.239
115.84
115.431
115.011
114.598
114.19
113.793
113.386
112.866
112.214
111.43
119.915
119.73
119.533
119.325
119.105
118.872
118.62
118.347
118.049
117.723
117.366
116.976
116.556
116.105
115.621
115.104
114.542
113.925
113.226
112.427
111.433
110.159
108.24
105.51
100.291
119.744
119.564
119.368
119.155
118.926
118.677
118.406
118.108
117.779
117.416
117.013
116.57
116.079
115.541
114.946
114.285
113.534
112.658
111.599
110.249
108.409
105.881
101.653
96.4604
78.8464
119.559
119.381
119.184
118.967
118.728
118.465
118.174
117.851
117.492
117.09
116.642
116.137
115.574
114.94
114.222
113.397
112.424
111.244
109.734
107.732
104.778
100.405
91.5625
76.4864
20.9796
119.362
119.185
118.986
118.763
118.515
118.238
117.928
117.581
117.191
116.752
116.253
115.69
115.048
114.314
113.467
112.469
111.263
109.76
107.803
105.138
101.219
95.3195
85.0006
68.182
39.5683
119.157
118.98
118.778
118.549
118.291
118
117.672
117.302
116.882
116.404
115.859
115.234
114.516
113.684
112.707
111.54
110.111
108.31
105.955
102.783
98.321
91.8983
82.5673
68.6854
51.8479
118.948
118.769
118.562
118.327
118.059
117.755
117.41
117.018
116.569
116.056
115.464
114.783
113.991
113.065
111.968
110.643
109.01
106.946
104.271
100.708
95.874
89.2013
80.0276
67.1914
50.7381
118.737
118.555
118.344
118.102
117.825
117.509
117.148
116.734
116.26
115.713
115.081
114.346
113.489
112.478
111.271
109.806
107.994
105.707
102.755
98.8785
93.712
86.7617
77.4485
65.0097
49.247
118.528
118.343
118.127
117.878
117.593
117.265
116.889
116.457
115.959
115.384
114.715
113.936
113.021
111.937
110.637
109.053
107.091
104.616
101.439
97.2959
91.8389
84.6158
75.1268
62.7963
47.4432
118.324
118.134
117.914
117.659
117.365
117.027
116.639
116.191
115.674
115.075
114.378
113.562
112.601
111.459
110.084
108.407
106.327
103.705
100.345
95.9785
90.2547
82.7119
72.8503
60.0537
44.2183
118.127
117.933
117.708
117.447
117.146
116.8
116.401
115.942
115.41
114.794
114.074
113.232
112.239
111.056
109.63
107.888
105.725
102.998
99.5008
94.9609
88.9932
81.0992
70.7193
56.9567
39.8614
117.939
117.742
117.512
117.246
116.94
116.587
116.181
115.713
115.172
114.544
113.813
112.955
111.944
110.739
109.287
107.513
105.308
102.526
98.946
94.2794
88.0668
79.7898
68.6605
53.3627
34.1753
117.764
117.562
117.328
117.059
116.748
116.391
115.981
115.508
114.963
114.331
113.596
112.736
111.723
110.518
109.067
107.297
105.102
102.331
98.747
94.0502
87.6161
78.9116
66.2123
48.4047
24.0428
117.601
117.396
117.159
116.887
116.574
116.215
115.804
115.331
114.787
114.158
113.428
112.577
111.578
110.394
108.974
107.249
105.121
102.447
99.0041
94.476
88.1865
79.4694
65.1779
44.6907
6.31901
117.453
117.246
117.007
116.733
116.419
116.061
115.652
115.183
114.645
114.026
113.31
112.48
111.509
110.365
109.003
107.362
105.356
102.867
99.7086
95.6259
90.1039
82.5444
70.2545
52.2641
2.3383
117.321
117.111
116.871
116.597
116.285
115.93
115.525
115.064
114.537
113.934
113.241
112.441
111.511
110.424
109.142
107.613
105.772
103.526
100.749
97.2562
92.7793
86.9867
79.0713
69.418
49.8971
117.204
116.993
116.753
116.48
116.171
115.822
115.425
114.975
114.464
113.882
113.217
112.455
111.577
110.559
109.37
107.973
106.319
104.346
101.968
99.0906
95.5775
91.2912
86.0323
79.829
72.0883
117.103
116.891
116.652
116.383
116.079
115.736
115.35
114.914
114.422
113.866
113.235
112.517
111.696
110.754
109.668
108.41
106.948
105.243
103.254
100.929
98.2358
95.1645
91.7746
88.335
85.4179
117.017
116.805
116.569
116.304
116.006
115.673
115.3
114.881
114.411
113.883
113.289
112.618
111.858
110.995
110.013
108.893
107.616
106.163
104.513
102.658
100.603
98.389
96.1187
94.0242
92.4641
116.944
116.735
116.501
116.242
115.952
115.63
115.271
114.872
114.426
113.929
113.373
112.751
112.053
111.269
110.388
109.398
108.292
107.061
105.704
104.226
102.658
101.053
99.5148
98.2111
97.3681
116.885
116.677
116.448
116.195
115.915
115.606
115.263
114.883
114.463
113.998
113.482
112.909
112.271
111.563
110.776
109.907
108.953
107.914
106.797
105.62
104.414
103.23
102.152
101.29
100.762
116.835
116.63
116.407
116.162
115.892
115.596
115.271
114.912
114.518
114.085
113.608
113.082
112.503
111.865