/*--------------------------------*- C++ -*----------------------------------*\
  =========                 |
  \\      /  F ield         | OpenFOAM: The Open Source CFD Toolbox
   \\    /   O peration     | Website:  https://openfoam.org
    \\  /    A nd           | Version:  13
     \\/     M anipulation  |
\*---------------------------------------------------------------------------*/
FoamFile
{
    format      ascii;
    class       surfaceScalarField;
    location    "4";
    object      phi;
}
// * * * * * * * * * * * * * * * * * * * * * * * * * * * * * * * * * * * * * //

dimensions      [0 3 -1 0 0 0 0];

internalField   nonuniform List<scalar> 
12590
(
2.30582e-11
5.7419e-09
3.90298e-11
8.46122e-09
-2.40874e-09
8.89038e-09
-2.72291e-09
9.21064e-09
-5.78107e-09
9.00749e-09
-5.9183e-09
9.16667e-09
-9.45015e-09
8.88838e-09
-9.40809e-09
9.0645e-09
-1.32337e-08
8.72843e-09
-1.27517e-08
8.86695e-09
-1.61254e-08
8.40968e-09
-1.50508e-08
8.36722e-09
-1.79715e-08
7.84314e-09
-1.64465e-08
7.6176e-09
-1.86157e-08
6.77588e-09
-1.58517e-08
5.80679e-09
-1.53676e-08
3.91156e-09
-9.97721e-09
1.49437e-09
-5.27874e-09
-8.58838e-10
2.31004e-09
-1.99528e-09
6.93583e-09
-1.35072e-09
1.15175e-08
7.71042e-10
1.17043e-08
3.25965e-09
8.16095e-09
8.35515e-09
9.28266e-09
9.5416e-10
1.15471e-08
5.29842e-10
1.74457e-08
-1.90394e-09
1.84633e-08
-3.51004e-09
1.8632e-08
-6.63296e-09
1.84131e-08
-8.53671e-09
1.83187e-08
-1.21666e-08
1.80157e-08
-1.41569e-08
1.78916e-08
-1.75039e-08
1.74796e-08
-1.8793e-08
1.70295e-08
-2.12436e-08
1.62716e-08
-2.13187e-08
1.55533e-08
-2.2643e-08
1.45764e-08
-2.14324e-08
1.35142e-08
-2.13245e-08
1.19519e-08
-1.82263e-08
9.78734e-09
-1.64336e-08
7.19176e-09
-1.20873e-08
3.97961e-09
-7.96217e-09
5.32821e-10
-6.57186e-10
-2.88835e-09
7.29819e-09
-3.69258e-09
1.22742e-08
-2.68099e-11
1.36869e-08
9.26015e-09
6.53214e-09
1.95375e-08
1.71453e-08
4.77904e-10
1.75808e-08
-1.63923e-09
2.70529e-08
-5.56205e-09
2.88304e-08
-9.11962e-09
2.88256e-08
-1.35032e-08
2.8347e-08
-1.72e-08
2.78701e-08
-2.14333e-08
2.734e-08
-2.45909e-08
2.66623e-08
-2.80435e-08
2.57403e-08
-2.9853e-08
2.46403e-08
-3.16647e-08
2.32283e-08
-3.18328e-08
2.17197e-08
-3.22082e-08
2.01425e-08
-3.09084e-08
1.83512e-08
-2.98437e-08
1.60735e-08
-2.67056e-08
1.28716e-08
-2.37004e-08
9.33272e-09
-1.84711e-08
4.92214e-09
-1.28417e-08
3.34447e-10
-5.73979e-09
-3.30924e-09
4.6012e-10
-4.43732e-09
8.30522e-09
-6.28436e-11
1.00183e-08
1.08737e-08
5.1108e-09
3.01175e-08
2.3216e-08
-1.46523e-10
2.3993e-08
-3.5244e-09
3.73173e-08
-8.48081e-09
3.97101e-08
-1.30612e-08
3.93517e-08
-1.799e-08
3.84517e-08
-2.2117e-08
3.74507e-08
-2.65258e-08
3.62928e-08
-2.97043e-08
3.50112e-08
-3.25988e-08
3.34074e-08
-3.40012e-08
3.14339e-08
-3.51563e-08
2.93521e-08
-3.4855e-08
2.72786e-08
-3.47586e-08
2.52095e-08
-3.34317e-08
2.30319e-08
-3.25078e-08
2.0285e-08
-2.99611e-08
1.64102e-08
-2.7653e-08
1.19298e-08
-2.33867e-08
6.30305e-09
-1.81608e-08
1.74855e-10
-1.11764e-08
-5.01584e-09
-3.82605e-09
-6.22149e-09
2.44327e-10
-1.13538e-09
7.62631e-09
1.25934e-08
3.92886e-09
3.67356e-08
2.83199e-08
-8.62925e-10
3.09381e-08
-5.35291e-09
4.8107e-08
-1.11306e-08
5.09644e-08
-1.63956e-08
5.0175e-08
-2.19046e-08
4.86497e-08
-2.65751e-08
4.69987e-08
-3.10247e-08
4.51662e-08
-3.40643e-08
4.28939e-08
-3.65572e-08
4.01813e-08
-3.71098e-08
3.72676e-08
-3.71148e-08
3.43053e-08
-3.57871e-08
3.16259e-08
-3.47608e-08
2.93853e-08
-3.30691e-08
2.72766e-08
-3.22248e-08
2.46459e-08
-3.05492e-08
2.05575e-08
-2.9403e-08
1.54962e-08
-2.68904e-08
8.88726e-09
-2.34891e-08
1.23457e-09
-1.75792e-08
-5.84922e-09
-1.08834e-08
-8.96641e-09
-2.23571e-09
-2.46216e-09
1.37879e-09
1.1275e-08
3.28319e-09
4.01909e-08
3.2573e-08
-2.07861e-09
3.88213e-08
-8.08521e-09
5.99653e-08
-1.51247e-08
6.29995e-08
-2.1632e-08
6.16235e-08
-2.80796e-08
5.94396e-08
-3.34247e-08
5.68999e-08
-3.82925e-08
5.38207e-08
-4.12191e-08
5.02339e-08
-4.28172e-08
4.60527e-08
-4.22688e-08
4.1584e-08
-4.07827e-08
3.75124e-08
-3.78095e-08
3.4309e-08
-3.52726e-08
3.2036e-08
-3.24966e-08
3.04173e-08
-3.11377e-08
2.85269e-08
-2.9793e-08
2.49932e-08
-2.95639e-08
1.98663e-08
-2.86344e-08
1.28086e-08
-2.71308e-08
4.08017e-09
-2.35257e-08
-5.1893e-09
-1.70667e-08
-1.09231e-08
-9.62734e-09
-7.32384e-09
-3.30337e-10
1.04057e-08
2.85403e-09
3.9984e-08
3.65657e-08
-3.83965e-09
4.823e-08
-1.21615e-08
7.3485e-08
-2.10695e-08
7.64709e-08
-2.9216e-08
7.43077e-08
-3.69937e-08
7.10631e-08
-4.33456e-08
6.71784e-08
-4.82345e-08
6.24528e-08
-5.06057e-08
5.66718e-08
-5.10379e-08
5.023e-08
-4.86933e-08
4.40443e-08
-4.51719e-08
3.8749e-08
-4.04592e-08
3.50847e-08
-3.62616e-08
3.3134e-08
-3.22135e-08
3.2326e-08
-2.98187e-08
3.14566e-08
-2.80685e-08
2.90003e-08
-2.79908e-08
2.45248e-08
-2.78942e-08
1.76886e-08
-2.81092e-08
8.53977e-09
-2.68195e-08
-1.91514e-09
-2.36613e-08
-1.05002e-08
-1.48737e-08
-1.04198e-08
-6.97295e-09
4.73318e-09
1.06561e-09
3.69271e-08
3.8595e-08
-6.271e-09
5.96299e-08
-1.72951e-08
8.93336e-08
-2.83972e-08
9.1697e-08
-3.8427e-08
8.83387e-08
-4.74221e-08
8.36652e-08
-5.42691e-08
7.77652e-08
-5.8938e-08
7.03117e-08
-6.0065e-08
6.157e-08
-5.80826e-08
5.22783e-08
-5.32799e-08
4.3763e-08
-4.74246e-08
3.77108e-08
-4.10459e-08
3.44486e-08
-3.56253e-08
3.32738e-08
-3.07477e-08
3.35278e-08
-2.74888e-08
3.37555e-08
-2.50116e-08
3.24587e-08
-2.41468e-08
2.87305e-08
-2.3577e-08
2.2346e-08
-2.38765e-08
1.33151e-08
-2.42127e-08
2.57494e-09
-2.33642e-08
-7.55109e-09
-2.03623e-08
-1.10443e-08
-1.08688e-08
1.08434e-09
-2.0318e-09
3.13638e-08
3.75506e-08
-9.17789e-09
7.36528e-08
-2.32165e-08
1.07578e-07
-3.65371e-08
1.08821e-07
-4.82785e-08
1.03824e-07
-5.83849e-08
9.69914e-08
-6.56438e-08
8.8305e-08
-6.94474e-08
7.74372e-08
-6.87578e-08
6.44942e-08
-6.42599e-08
5.13446e-08
-5.63927e-08
4.08034e-08
-4.78567e-08
3.43348e-08
-3.96167e-08
3.19192e-08
-3.3219e-08
3.26986e-08
-2.81178e-08
3.47211e-08
-2.43491e-08
3.60413e-08
-2.09041e-08
3.53119e-08
-1.81614e-08
3.18238e-08
-1.56688e-08
2.55533e-08
-1.40993e-08
1.69906e-08
-1.39701e-08
7.02621e-09
-1.53554e-08
-2.45463e-09
-1.48616e-08
-7.15438e-09
-1.04881e-08
-3.91649e-10
-2.30662e-09
2.75326e-08
3.63618e-08
-1.27138e-08
9.07027e-08
-2.96396e-08
1.28534e-07
-4.53721e-08
1.28012e-07
-5.90911e-08
1.2089e-07
-7.04082e-08
1.114e-07
-7.80838e-08
9.92197e-08
-8.16714e-08
8.37552e-08
-7.96199e-08
6.58902e-08
-7.2668e-08
4.84148e-08
-6.24432e-08
3.52245e-08
-5.18049e-08
2.84736e-08
-4.16752e-08
2.75183e-08
-3.43371e-08
3.10343e-08
-2.85877e-08
3.54883e-08
-2.3873e-08
3.77353e-08
-1.85758e-08
3.69189e-08
-1.3363e-08
3.31694e-08
-7.98221e-09
2.69741e-08
-4.35243e-09
1.95305e-08
-3.08904e-09
1.1039e-08
-3.50189e-09
2.77906e-09
-4.76632e-09
-2.35946e-09
-2.69919e-09
2.51119e-09
1.32672e-09
2.83733e-08
3.87997e-08
-1.66383e-08
1.11496e-07
-3.6899e-08
1.52279e-07
-5.53856e-08
1.49764e-07
-7.14127e-08
1.40109e-07
-8.45401e-08
1.27309e-07
-9.34544e-08
1.1095e-07
-9.69875e-08
9.02805e-08
-9.41624e-08
6.63261e-08
-8.59382e-08
4.35642e-08
-7.44198e-08
2.83334e-08
-6.25114e-08
2.10492e-08
-5.16277e-08
2.16563e-08
-4.31727e-08
2.79312e-08
-3.5719e-08
3.43548e-08
-2.87094e-08
3.70336e-08
-2.04548e-08
3.5829e-08
-1.19421e-08
3.16745e-08
-2.52165e-09
2.50578e-08
6.02588e-09
1.7315e-08
1.22216e-08
1.05601e-08
1.35261e-08
6.15659e-09
1.12847e-08
4.72955e-09
8.57953e-09
1.08453e-08
5.70315e-09
3.53967e-08
4.61478e-08
-2.13573e-08
1.3652e-07
-4.51903e-08
1.79614e-07
-6.70859e-08
1.74656e-07
-8.61139e-08
1.62022e-07
-1.01597e-07
1.45525e-07
-1.11919e-07
1.24103e-07
-1.16052e-07
9.67458e-08
-1.12833e-07
6.62372e-08
-1.03528e-07
3.8037e-08
-9.20499e-08
2.05378e-08
-7.98554e-08
1.2573e-08
-6.81469e-08
1.45451e-08
-5.79742e-08
2.24959e-08
-4.75988e-08
2.96313e-08
-3.65823e-08
3.18943e-08
-2.38727e-08
2.99514e-08
-9.83845e-09
2.45328e-08
4.67994e-09
1.73469e-08
1.66145e-08
1.1231e-08
2.45636e-08
7.86329e-09
2.71682e-08
8.679e-09
2.42813e-08
1.28457e-08
1.59508e-08
2.34023e-08
1.03864e-08
4.74941e-08
5.7687e-08
-2.67107e-08
1.66875e-07
-5.5139e-08
2.11028e-07
-8.09797e-08
2.03349e-07
-1.03522e-07
1.87352e-07
-1.21946e-07
1.6633e-07
-1.34103e-07
1.38617e-07
-1.38249e-07
1.03595e-07
-1.34535e-07
6.53307e-08
-1.25873e-07
3.20606e-08
-1.13926e-07
1.19902e-08
-1.00688e-07
2.64545e-09
-8.7122e-08
4.59915e-09
-7.34605e-08
1.28819e-08
-5.86878e-08
1.96311e-08
-4.26149e-08
2.10193e-08
-2.40995e-08
1.75631e-08
-4.42306e-09
1.08975e-08
1.39478e-08
4.73975e-09
2.86174e-08
1.60183e-09
3.82312e-08
3.2761e-09
4.12124e-08
1.04202e-08
3.61418e-08
2.2502e-08
2.65975e-08
4.01237e-08
1.5829e-08
6.10812e-08
7.55166e-08
-3.31573e-08
2.03097e-07
-6.68423e-08
2.47634e-07
-9.73903e-08
2.36464e-07
-1.24283e-07
2.16503e-07
-1.45901e-07
1.90172e-07
-1.59744e-07
1.54636e-07
-1.64577e-07
1.10256e-07
-1.60473e-07
6.36459e-08
-1.51485e-07
2.59345e-08
-1.38343e-07
1.32918e-09
-1.22499e-07
-1.06304e-08
-1.04807e-07
-1.00639e-08
-8.59178e-08
-2.84999e-09
-6.55233e-08
3.05384e-09
-4.36825e-08
3.43115e-09
-1.87899e-08
-2.28208e-09
6.46172e-09
-9.65523e-09
2.88823e-08
-1.32679e-08
4.58156e-08
-1.12607e-08
5.63541e-08
-3.20268e-09
5.90364e-08
1.20189e-08
5.26189e-08
3.41844e-08
3.89419e-08
5.61062e-08
2.5007e-08
8.08109e-08
1.01776e-07
-4.02172e-08
2.46173e-07
-8.03887e-08
2.90158e-07
-1.16833e-07
2.74928e-07
-1.48697e-07
2.50397e-07
-1.74291e-07
2.1721e-07
-1.90516e-07
1.72512e-07
-1.96125e-07
1.17833e-07
-1.91375e-07
6.11567e-08
-1.81016e-07
1.7563e-08
-1.64653e-07
-1.27679e-08
-1.44165e-07
-2.90554e-08
-1.20586e-07
-3.15584e-08
-9.482e-08
-2.64241e-08
-6.75861e-08
-2.1706e-08
-3.7795e-08
-2.34001e-08
-5.42515e-09
-3.14182e-08
2.49602e-08
-3.69988e-08
5.0738e-08
-3.61738e-08
7.00604e-08
-2.77745e-08
8.17335e-08
-1.19428e-08
8.41169e-08
1.28429e-08
7.50542e-08
4.58602e-08
6.04771e-08
7.60112e-08
3.74294e-08
1.06144e-07
1.41221e-07
-4.85003e-08
2.9759e-07
-9.61956e-08
3.40679e-07
-1.39991e-07
3.20725e-07
-1.78318e-07
2.90976e-07
-2.08524e-07
2.49369e-07
-2.27374e-07
1.93903e-07
-2.34265e-07
1.26087e-07
-2.2777e-07
5.7333e-08
-2.14231e-07
5.6195e-09
-1.92936e-07
-3.2375e-08
-1.66069e-07
-5.48324e-08
-1.34793e-07
-6.20338e-08
-1.00825e-07
-5.94228e-08
-6.51967e-08
-5.66489e-08
-2.60581e-08
-6.09668e-08
1.3793e-08
-7.03231e-08
5.00968e-08
-7.15333e-08
8.01369e-08
-6.53053e-08
1.03012e-07
-4.87269e-08
1.16473e-07
-2.42436e-08
1.19175e-07
1.27738e-08
1.09888e-07
5.75989e-08
8.79349e-08
9.9554e-08
5.52096e-08
1.43234e-07
1.9813e-07
-5.79307e-08
3.59929e-07
-1.15553e-07
4.01209e-07
-1.67874e-07
3.77438e-07
-2.1413e-07
3.40354e-07
-2.48929e-07
2.88565e-07
-2.71433e-07
2.185e-07
-2.77338e-07
1.37068e-07
-2.69238e-07
5.13777e-08
-2.5042e-07
-9.8652e-09
-2.22857e-07
-5.851e-08
-1.8776e-07
-8.90978e-08
-1.46735e-07
-1.01491e-07
-1.03595e-07
-1.03887e-07
-5.65441e-08
-1.02758e-07
-8.58556e-09
-1.11281e-07
3.97168e-08
-1.17096e-07
8.14719e-08
-1.15463e-07
1.19016e-07
-1.00825e-07
1.45865e-07
-7.75468e-08
1.65076e-07
-4.05432e-08
1.693e-07
7.38941e-09
1.62142e-07
6.7615e-08
1.34456e-07
1.29038e-07
8.8244e-08
1.93032e-07
2.87243e-07
-6.96727e-08
4.34551e-07
-1.37878e-07
4.74699e-07
-2.01459e-07
4.44847e-07
-2.55517e-07
3.98959e-07
-2.95945e-07
3.34436e-07
-3.18712e-07
2.48468e-07
-3.25468e-07
1.48791e-07
-3.13509e-07
4.7418e-08
-2.89505e-07
-2.92542e-08
-2.53373e-07
-9.04261e-08
-2.07434e-07
-1.30534e-07
-1.57381e-07
-1.52324e-07
-1.00729e-07
-1.57644e-07
-4.39779e-08
-1.61701e-07
1.60127e-08
-1.68725e-07
6.99399e-08
-1.73999e-07
1.23027e-07
-1.6581e-07
1.66061e-07
-1.46959e-07
2.03965e-07
-1.11961e-07
2.27065e-07
-6.62295e-08
2.38914e-07
-1.57033e-11
2.28719e-07
7.67854e-08
1.9006e-07
1.71834e-07
1.19303e-07
2.6545e-07
4.08434e-07
-8.29354e-08
5.20868e-07
-1.64462e-07
5.59222e-07
-2.39234e-07
5.22395e-07
-3.00192e-07
4.66221e-07
-3.4567e-07
3.84438e-07
-3.7116e-07
2.80698e-07
-3.76078e-07
1.62489e-07
-3.6202e-07
4.15475e-08
-3.29957e-07
-5.4155e-08
-2.83183e-07
-1.30895e-07
-2.28031e-07
-1.84175e-07
-1.62815e-07
-2.10642e-07
-9.58718e-08
-2.23243e-07
-2.45112e-08
-2.27952e-07
4.32303e-08
-2.35418e-07
1.10661e-07
-2.36988e-07
1.71429e-07
-2.26467e-07
2.27914e-07
-1.99021e-07
2.73449e-07
-1.57493e-07
3.11075e-07
-9.87101e-08
3.32947e-07
-2.14577e-08
3.39586e-07
7.61444e-08
3.05696e-07
2.07912e-07
2.48053e-07
3.27439e-07
6.619e-07
-9.84435e-08
6.22237e-07
-1.94138e-07
6.56928e-07
-2.79111e-07
6.1046e-07
-3.50479e-07
5.38227e-07
-4.00648e-07
4.40184e-07
-4.29926e-07
3.14864e-07
-4.34271e-07
1.72481e-07
-4.14094e-07
2.75066e-08
-3.72161e-07
-9.13872e-08
-3.14551e-07
-1.85761e-07
-2.43181e-07
-2.48497e-07
-1.67728e-07
-2.85114e-07
-8.60545e-08
-2.9888e-07
-3.76832e-09
-3.0546e-07
7.92239e-08
-3.12811e-07
1.58924e-07
-3.13183e-07
2.33672e-07
-2.9663e-07
3.00635e-07
-2.6311e-07
3.60491e-07
-2.12812e-07
4.09793e-07
-1.45206e-07
4.48417e-07
-5.46096e-08
4.64391e-07
6.37212e-08
4.35492e-07
2.41114e-07
3.21819e-07
4.53599e-07
9.83604e-07
-1.04236e-07
7.27311e-07
-2.03959e-07
7.57551e-07
-2.94459e-07
7.01094e-07
-3.69904e-07
6.16869e-07
-4.29932e-07
5.00417e-07
-4.69139e-07
3.56091e-07
-4.82981e-07
1.8861e-07
-4.70813e-07
1.73238e-08
-4.33992e-07
-1.26489e-07
-3.76429e-07
-2.40468e-07
-3.05693e-07
-3.20548e-07
-2.21745e-07
-3.64596e-07
-1.32858e-07
-3.852e-07
-4.06719e-08
-3.94016e-07
5.22498e-08
-4.02315e-07
1.43068e-07
-4.00722e-07
2.31883e-07
-3.82597e-07
3.1997e-07
-3.48267e-07
4.08312e-07
-2.98557e-07
4.98614e-07
-2.32593e-07
5.95143e-07
-1.48549e-07
7.03164e-07
-4.13487e-08
8.51077e-07
1.02483e-07
1.06065e-06
2.42346e-07
4.86684e-07
1.56292e-06
-1.2136e-07
8.50207e-07
-2.36269e-07
8.73499e-07
-3.38911e-07
8.0499e-07
-4.27884e-07
7.04281e-07
-4.96614e-07
5.70021e-07
-5.42272e-07
4.00939e-07
-5.58224e-07
2.03978e-07
-5.43389e-07
1.9544e-09
-4.99271e-07
-1.70849e-07
-4.32776e-07
-3.08329e-07
-3.47278e-07
-4.0359e-07
-2.51692e-07
-4.61373e-07
-1.48044e-07
-4.87698e-07
-4.15049e-08
-4.99151e-07
6.46502e-08
-5.068e-07
1.68199e-07
-5.0272e-07
2.70021e-07
-4.82827e-07
3.7155e-07
-4.48282e-07
4.74857e-07
-4.00314e-07
5.83117e-07
-3.39448e-07
7.01736e-07
-2.65322e-07
8.44215e-07
-1.79583e-07
1.02738e-06
-8.28196e-08
1.27443e-06
5.41385e-09
1.26779e-07
1.63147e-06
-1.40015e-07
9.90683e-07
-2.71111e-07
1.00505e-06
-3.88752e-07
9.22122e-07
-4.89041e-07
8.05028e-07
-5.68881e-07
6.47752e-07
-6.20973e-07
4.51243e-07
-6.39902e-07
2.20509e-07
-6.21923e-07
-1.81667e-08
-5.68957e-07
-2.2525e-07
-4.88272e-07
-3.8902e-07
-3.89838e-07
-5.04568e-07
-2.77579e-07
-5.733e-07
-1.59193e-07
-6.06342e-07
-3.84825e-08
-6.1957e-07
8.05968e-08
-6.25391e-07
1.96317e-07
-6.17793e-07
3.0981e-07
-5.95611e-07
4.22969e-07
-5.60663e-07
5.38159e-07
-5.14762e-07
6.58761e-07
-4.59111e-07
7.8915e-07
-3.94856e-07
9.34305e-07
-3.24732e-07
1.10823e-06
-2.4931e-07
1.29701e-06
-1.88394e-07
-1.25723e-07
1.5521e-06
-1.58212e-07
1.15005e-06
-3.05602e-07
1.15311e-06
-4.37255e-07
1.05405e-06
-5.52036e-07
9.18575e-07
-6.43683e-07
7.37759e-07
-7.05193e-07
5.1012e-07
-7.29137e-07
2.41382e-07
-7.07969e-07
-4.18153e-08
-6.44205e-07
-2.906e-07
-5.48979e-07
-4.86233e-07
-4.32091e-07
-6.21613e-07
-3.03268e-07
-7.03409e-07
-1.68754e-07
-7.41595e-07
-3.36735e-08
-7.54994e-07
9.77881e-08
-7.5683e-07
2.24595e-07
-7.44384e-07
3.48196e-07
-7.18869e-07
4.70742e-07
-6.82809e-07
5.94713e-07
-6.38281e-07
7.22805e-07
-5.86864e-07
8.58499e-07
-5.29933e-07
1.00607e-06
-4.70084e-07
1.16547e-06
-4.12375e-07
1.34231e-06
-3.5894e-07
-3.2274e-07
1.53616e-06
-1.73622e-07
1.3241e-06
-3.35477e-07
1.31546e-06
-4.81225e-07
1.20003e-06
-6.10917e-07
1.04721e-06
-7.17809e-07
8.43176e-07
-7.92731e-07
5.82739e-07
-8.24232e-07
2.7032e-07
-8.00592e-07
-6.75429e-08
-7.24381e-07
-3.68222e-07
-6.09941e-07
-6.01197e-07
-4.73695e-07
-7.59101e-07
-3.25672e-07
-8.52597e-07
-1.74213e-07
-8.93597e-07
-2.5096e-08
-9.04416e-07
1.17843e-07
-8.9985e-07
2.54396e-07
-8.80836e-07
3.86365e-07
-8.50628e-07
5.16165e-07
-8.12342e-07
6.46202e-07
-7.68054e-07
7.78946e-07
-7.19215e-07
9.16806e-07
-6.6742e-07
1.0607e-06
-6.14994e-07
1.21596e-06
-5.62855e-07
1.37291e-06
-5.21074e-07
-4.84904e-07
1.53726e-06
-1.83692e-07
1.50933e-06
-3.5664e-07
1.48965e-06
-5.15362e-07
1.35889e-06
-6.60957e-07
1.19326e-06
-7.86606e-07
9.67731e-07
-8.78523e-07
6.73436e-07
-9.20868e-07
3.11231e-07
-8.9662e-07
-9.25924e-08
-8.06312e-07
-4.58801e-07
-6.70083e-07
-7.37985e-07
-5.10732e-07
-9.193e-07
-3.41804e-07
-1.02159e-06
-1.73463e-07
-1.06267e-06
-1.09645e-08
-1.06724e-06
1.42233e-07
-1.05309e-06
2.86844e-07
-1.02532e-06
4.25283e-07
-9.88848e-07
5.60248e-07
-9.47052e-07
6.94182e-07
-9.01714e-07
8.29175e-07
-8.53989e-07
9.66942e-07
-8.04966e-07
1.10962e-06
-7.56137e-07
1.254e-06
-7.11242e-07
1.40535e-06
-6.67651e-07
-6.35381e-07
1.55301e-06
-1.86883e-07
1.69736e-06
-3.66524e-07
1.67044e-06
-5.34679e-07
1.52872e-06
-6.95775e-07
1.3543e-06
-8.40724e-07
1.11333e-06
-9.53679e-07
7.86551e-07
-1.01073e-06
3.69245e-07
-9.89278e-07
-1.13079e-07
-8.85037e-07
-5.62315e-07
-7.23557e-07
-8.99001e-07
-5.3787e-07
-1.1043e-06
-3.48043e-07
-1.21231e-06
-1.62867e-07
-1.24777e-06
1.14073e-08
-1.24143e-06
1.72898e-07
-1.2144e-06
3.23438e-07
-1.17561e-06
4.66217e-07
-1.13134e-06
6.04292e-07
-1.08483e-06
7.40161e-07
-1.03731e-06
8.7583e-07
-9.89331e-07
1.01274e-06
-9.41673e-07
1.15085e-06
-8.95412e-07
1.29359e-06
-8.50227e-07
1.43353e-06
-8.1246e-07
-7.75717e-07
1.5758e-06
-1.81261e-07
1.88095e-06
-3.60889e-07
1.8522e-06
-5.34308e-07
1.70323e-06
-7.06306e-07
1.52867e-06
-8.70476e-07
1.27928e-06
-1.00254e-06
9.21176e-07
-1.07595e-06
4.45515e-07
-1.06376e-06
-1.22212e-07
-9.48847e-07
-6.74939e-07
-7.61538e-07
-1.08475e-06
-5.48571e-07
-1.31718e-06
-3.37509e-07
-1.42234e-06
-1.38308e-07
-1.44671e-06
4.49834e-08
-1.42438e-06
2.11893e-07
-1.38095e-06
3.65636e-07
-1.32897e-06
5.10319e-07
-1.27564e-06
6.4938e-07
-1.22353e-06
7.85409e-07
-1.17299e-06
9.20207e-07
-1.12392e-06
1.05504e-06
-1.07633e-06
1.19144e-06
-1.03057e-06
1.32636e-06
-9.88915e-07
1.46532e-06
-9.47355e-07
-9.13396e-07
1.60039e-06
-1.65473e-07
2.04804e-06
-3.37192e-07
2.02577e-06
-5.05293e-07
1.87443e-06
-6.77177e-07
1.70341e-06
-8.45279e-07
1.44999e-06
-9.90397e-07
1.07032e-06
-1.08901e-06
5.48718e-07
-1.09636e-06
-1.09911e-07
-9.77926e-07
-7.90592e-07
-7.70179e-07
-1.29086e-06
-5.30803e-07
-1.55502e-06
-3.03572e-07
-1.64893e-06
-9.46564e-08
-1.65486e-06
9.30439e-08
-1.61138e-06
2.61174e-07
-1.54847e-06
4.14662e-07
-1.48192e-06
5.58475e-07
-1.41896e-06
6.96307e-07
-1.36093e-06
8.3071e-07
-1.30703e-06
9.63471e-07
-1.25632e-06
1.09579e-06
-1.2084e-06
1.22747e-06
-1.16341e-06
1.36188e-06
-1.12003e-06
1.49302e-06
-1.08302e-06
-1.04567e-06
1.62694e-06
-1.38173e-07
2.18935e-06
-2.91424e-07
2.18229e-06
-4.43445e-07
2.02977e-06
-6.01779e-07
1.86389e-06
-7.59546e-07
1.61323e-06
-9.03006e-07
1.21784e-06
-1.00688e-06
6.5941e-07
-1.03696e-06
-7.45008e-08
-9.38901e-07
-8.85104e-07
-7.27924e-07
-1.49962e-06
-4.71767e-07
-1.80956e-06
-2.37119e-07
-1.88262e-06
-2.68927e-08
-1.86376e-06
1.5813e-07
-1.79544e-06
3.21907e-07
-1.71151e-06
4.71079e-07
-1.63045e-06
6.11031e-07
-1.55836e-06
7.45394e-07
-1.49481e-06
8.76523e-07
-1.43774e-06
1.00595e-06
-1.38546e-06
1.13463e-06
-1.33696e-06
1.26405e-06
-1.29174e-06
1.39165e-06
-1.25114e-06
1.52305e-06
-1.21088e-06
-1.17713e-06
1.65205e-06
-9.93044e-08
2.29098e-06
-2.24457e-07
2.3105e-06
-3.48422e-07
2.15619e-06
-4.74104e-07
1.99567e-06
-6.01415e-07
1.74338e-06
-7.17321e-07
1.34024e-06
-8.10707e-07
7.59225e-07
-8.55286e-07
-2.16144e-08
-7.97985e-07
-9.38632e-07
-6.09173e-07
-1.68597e-06
-3.57607e-07
-2.06019e-06
-1.31083e-07
-2.10682e-06
6.76821e-08
-2.0616e-06
2.40653e-07
-1.96752e-06
3.93839e-07
-1.86391e-06
5.34477e-07
-1.77041e-06
6.67658e-07
-1.69094e-06
7.96463e-07
-1.6231e-06
9.22769e-07
-1.56362e-06
1.04783e-06
-1.51016e-06
1.17253e-06
-1.46148e-06
1.29675e-06
-1.41704e-06
1.42363e-06
-1.37518e-06
1.5483e-06
-1.33968e-06
-1.30418e-06
1.67674e-06
-5.13283e-08
2.34623e-06
-1.39138e-07
2.4015e-06
-2.21775e-07
2.24376e-06
-3.03816e-07
2.07982e-06
-3.77685e-07
1.82351e-06
-4.43968e-07
1.41168e-06
-5.0779e-07
8.3191e-07
-5.39877e-07
2.11862e-08
-5.35353e-07
-9.39417e-07
-3.96954e-07
-1.82267e-06
-1.81457e-07
-2.27284e-06
1.35842e-08
-2.302e-06
1.86461e-07
-2.23307e-06
3.37938e-07
-2.11804e-06
4.7476e-07
-1.99999e-06
6.03255e-07
-1.89825e-06
7.27261e-07
-1.81438e-06
8.488e-07
-1.74414e-06
9.69039e-07
-1.68343e-06
1.08875e-06
-1.6296e-06
1.20854e-06
-1.58116e-06
1.32963e-06
-1.53721e-06
1.44986e-06
-1.49864e-06
1.57452e-06
-1.46121e-06
-1.43036e-06
1.69841e-06
1.48807e-09
2.34708e-06
-3.98309e-08
2.44631e-06
-7.8317e-08
2.2849e-06
-1.04864e-07
2.11231e-06
-1.15858e-07
1.83706e-06
-1.00259e-07
1.40229e-06
-8.03764e-08
8.21017e-07
-9.33643e-08
5.13054e-08
-1.75508e-07
-8.53636e-07
-1.10282e-07
-1.8854e-06
3.72263e-08
-2.42108e-06
1.85308e-07
-2.44747e-06
3.20264e-07
-2.36761e-06
4.43822e-07
-2.24104e-06
5.60629e-07
-2.11622e-06
6.748e-07
-2.01188e-06
7.8816e-07
-1.92723e-06
9.01308e-07
-1.85683e-06
1.01457e-06
-1.79631e-06
1.12834e-06
-1.74306e-06
1.24306e-06
-1.6957e-06
1.35839e-06
-1.6536e-06
1.47727e-06
-1.61496e-06
1.59531e-06
-1.58308e-06
-1.55207e-06
1.71819e-06
5.64163e-08
2.29547e-06
6.36041e-08
2.4428e-06
6.93786e-08
2.28414e-06
8.96317e-08
2.09297e-06
1.27161e-07
1.80494e-06
1.80366e-07
1.35128e-06
2.19834e-07
7.91231e-07
2.08795e-07
7.03084e-08
1.63176e-07
-8.05332e-07
1.81623e-07
-1.90343e-06
2.68307e-07
-2.5048e-06
3.6118e-07
-2.54156e-06
4.5621e-07
-2.4618e-06
5.50318e-07
-2.33461e-06
6.46507e-07
-2.21195e-06
7.46057e-07
-2.11098e-06
8.48386e-07
-2.02913e-06
9.52677e-07
-1.96073e-06
1.05854e-06
-1.90183e-06
1.16592e-06
-1.85022e-06
1.27492e-06
-1.80468e-06
1.38648e-06
-1.76436e-06
1.49851e-06
-1.72999e-06
1.61583e-06
-1.69766e-06
-1.67223e-06
1.73386e-06
1.09828e-07
2.18852e-06
1.64299e-07
2.39241e-06
2.04958e-07
2.24536e-06
2.6394e-07
2.03925e-06
3.28373e-07
1.74117e-06
3.94947e-07
1.28874e-06
4.42348e-07
7.47419e-07
4.43905e-07
7.45011e-08
4.22768e-07
-7.81905e-07
4.27307e-07
-1.90589e-06
4.71851e-07
-2.55094e-06
5.21986e-07
-2.58938e-06
5.81088e-07
-2.5209e-06
6.49415e-07
-2.40274e-06
7.27722e-07
-2.28999e-06
8.14151e-07
-2.19711e-06
9.0605e-07
-2.12072e-06
1.00162e-06
-2.056e-06
1.1e-06
-1.99995e-06
1.20092e-06
-1.95092e-06
1.30435e-06
-1.90805e-06
1.40982e-06
-1.87085e-06
1.51978e-06
-1.83774e-06
1.63029e-06
-1.8117e-06
-1.78742e-06
1.74648e-06
1.61236e-07
2.03403e-06
2.57519e-07
2.29988e-06
3.27228e-07
2.18004e-06
4.07838e-07
1.96027e-06
4.95074e-07
1.65817e-06
5.68484e-07
1.2184e-06
6.31986e-07
6.88634e-07
6.27124e-07
8.40658e-08
5.92223e-07
-7.44827e-07
6.06739e-07
-1.92019e-06
6.27679e-07
-2.56882e-06
6.49604e-07
-2.61275e-06
6.85214e-07
-2.55591e-06
7.35875e-07
-2.45314e-06
8.01194e-07
-2.35512e-06
8.76992e-07
-2.27271e-06
9.59636e-07
-2.20315e-06
1.04704e-06
-2.14319e-06
1.13821e-06
-2.09091e-06
1.23268e-06
-2.04529e-06
1.33023e-06
-2.00567e-06
1.43149e-06
-1.97146e-06
1.53442e-06
-1.94347e-06
1.64336e-06
-1.91818e-06
-1.90016e-06
1.7541e-06
2.09388e-07
1.82758e-06
3.43205e-07
2.16984e-06
4.33679e-07
2.09303e-06
5.2663e-07
1.87269e-06
6.21202e-07
1.56499e-06
7.00722e-07
1.14431e-06
7.57678e-07
6.35696e-07
7.196e-07
1.29533e-07
6.81466e-07
-7.04076e-07
7.22908e-07
-1.95916e-06
7.28163e-07
-2.57564e-06
7.41957e-07
-2.62406e-06
7.66293e-07
-2.58029e-06
8.08431e-07
-2.49521e-06
8.65731e-07
-2.41235e-06
9.33407e-07
-2.3403e-06
1.00814e-06
-2.27778e-06
1.08816e-06
-2.22308e-06
1.17254e-06
-2.17518e-06
1.26082e-06
-2.1335e-06
1.3528e-06
-2.09765e-06
1.44782e-06
-2.06751e-06
1.54808e-06
-2.04174e-06
1.64984e-06
-2.02324e-06
-2.00725e-06
1.75779e-06
2.58197e-07
1.57841e-06
4.2199e-07
2.01128e-06
5.28536e-07
1.99162e-06
6.19039e-07
1.78229e-06
7.09492e-07
1.48374e-06
7.80418e-07
1.07594e-06
8.15422e-07
6.10441e-07
7.32756e-07
2.17564e-07
7.16068e-07
-6.84116e-07
7.82297e-07
-2.02479e-06
7.88915e-07
-2.57858e-06
8.03544e-07
-2.64003e-06
8.28899e-07
-2.60485e-06
8.691e-07
-2.53515e-06
9.21665e-07
-2.46485e-06
9.83091e-07
-2.40171e-06
1.05114e-06
-2.34581e-06
1.12457e-06
-2.29648e-06
1.20266e-06
-2.25324e-06
1.28496e-06
-2.21581e-06
1.37114e-06
-2.18401e-06
1.46173e-06
-2.15758e-06
1.55473e-06
-2.1374e-06
1.6541e-06
-2.12042e-06
-2.11096e-06
1.75591e-06
3.05555e-07
1.277e-06
4.92024e-07
1.8294e-06
6.0677e-07
1.87901e-06
6.94715e-07
1.70473e-06
7.61287e-07
1.41699e-06
8.0886e-07
1.03771e-06
8.01071e-07
6.23231e-07
6.95553e-07
3.33462e-07
7.23281e-07
-7.09025e-07
8.08005e-07
-2.10673e-06
8.21298e-07
-2.59341e-06
8.48651e-07
-2.66432e-06
8.79623e-07
-2.63584e-06
9.20433e-07
-2.57592e-06
9.69886e-07
-2.51434e-06
1.02633e-06
-2.45823e-06
1.08869e-06
-2.40824e-06
1.15622e-06
-2.36407e-06
1.22843e-06
-2.32549e-06
1.30497e-06
-2.29242e-06
1.38568e-06
-2.26487e-06
1.46995e-06
-2.24288e-06
1.55972e-06
-2.22544e-06
1.65154e-06
-2.21533e-06
-2.2083e-06
1.74963e-06
3.46118e-07
9.41433e-07
5.50461e-07
1.62966e-06
6.73851e-07
1.76205e-06
7.46985e-07
1.63065e-06
7.98342e-07
1.3772e-06
8.1779e-07
1.02213e-06
7.73216e-07
6.76927e-07
6.43351e-07
4.66706e-07
7.18941e-07
-7.82269e-07
8.11028e-07
-2.19858e-06
8.48413e-07
-2.62672e-06
8.85316e-07
-2.70295e-06
9.23253e-07
-2.67288e-06
9.64849e-07
-2.61732e-06
1.01172e-06
-2.56128e-06
1.06392e-06
-2.5106e-06
1.12122e-06
-2.46571e-06
1.18329e-06
-2.42629e-06
1.24988e-06
-2.39221e-06
1.32077e-06
-2.36349e-06
1.39577e-06
-2.34014e-06
1.47536e-06
-2.32209e-06
1.55769e-06
-2.31029e-06
1.64637e-06
-2.302e-06
-2.30143e-06
1.73766e-06
3.59287e-07
5.84134e-07
5.90124e-07
1.40127e-06
7.18815e-07
1.63484e-06
7.91072e-07
1.57016e-06
8.18294e-07
1.34784e-06
8.18735e-07
1.02937e-06
7.37315e-07
7.57499e-07
5.95269e-07
6.16185e-07
7.18821e-07
-9.0524e-07
8.19938e-07
-2.29773e-06
8.75738e-07
-2.6852e-06
9.22834e-07
-2.74697e-06
9.63366e-07
-2.71386e-06
1.00462e-06
-2.65881e-06
1.0488e-06
-2.60573e-06
1.09694e-06
-2.55902e-06
1.14936e-06
-2.5184e-06
1.20611e-06
-2.4833e-06
1.26717e-06
-2.45349e-06
1.33247e-06
-2.429e-06
1.40199e-06
-2.40989e-06
1.47514e-06
-2.3963e-06
1.55378e-06
-2.38734e-06
1.63452e-06
-2.38574e-06
-2.38757e-06
1.72134e-06
3.34659e-07
2.56878e-07
5.99438e-07
1.13956e-06
7.46105e-07
1.49452e-06
8.10038e-07
1.49951e-06
8.33747e-07
1.3354e-06
8.16511e-07
1.04205e-06
7.19292e-07
8.59303e-07
5.87244e-07
7.37131e-07
7.45642e-07
-1.06483e-06
8.52319e-07
-2.40648e-06
9.173e-07
-2.747e-06
9.63083e-07
-2.79576e-06
1.0038e-06
-2.75429e-06
1.04261e-06
-2.6979e-06
1.08299e-06
-2.64653e-06
1.12648e-06
-2.60294e-06
1.17373e-06
-2.56606e-06
1.22502e-06
-2.53495e-06
1.2805e-06
-2.50928e-06
1.34016e-06
-2.48896e-06
1.40388e-06
-2.474e-06
1.47214e-06
-2.4643e-06
1.54313e-06
-2.46079e-06
1.62018e-06
-2.46095e-06
-2.46888e-06
1.69969e-06
2.71815e-07
-1.71002e-08
5.73786e-07
8.38445e-07
7.38535e-07
1.32608e-06
8.18376e-07
1.43109e-06
8.30656e-07
1.31427e-06
8.19652e-07
1.05365e-06
7.18467e-07
9.47771e-07
6.4105e-07
8.03864e-07
8.10905e-07
-1.23851e-06
9.13528e-07
-2.50967e-06
9.70078e-07
-2.80829e-06
1.01293e-06
-2.83675e-06
1.04735e-06
-2.79012e-06
1.08061e-06
-2.73208e-06
1.11539e-06
-2.68203e-06
1.15317e-06
-2.64135e-06
1.19468e-06
-2.60812e-06
1.24025e-06
-2.58099e-06
1.29001e-06
-2.55945e-06
1.34399e-06
-2.5433e-06
1.40211e-06
-2.53251e-06
1.46384e-06
-2.52712e-06
1.53079e-06
-2.52633e-06
1.5997e-06
-2.53277e-06
-2.5428e-06
1.67423e-06
1.78754e-07
-1.98622e-07
5.18068e-07
4.98717e-07
7.14616e-07
1.13452e-06
7.96385e-07
1.34003e-06
8.23734e-07
1.28882e-06
7.90565e-07
1.07731e-06
7.00911e-07
1.0266e-06
7.28127e-07
7.5545e-07
9.14424e-07
-1.43059e-06
9.991e-07
-2.5993e-06
1.04313e-06
-2.85125e-06
1.0703e-06
-2.86835e-06
1.09474e-06
-2.81559e-06
1.11905e-06
-2.75751e-06
1.14614e-06
-2.71008e-06
1.17709e-06
-2.67312e-06
1.21228e-06
-2.644e-06
1.25184e-06
-2.62115e-06
1.2958e-06
-2.60391e-06
1.34402e-06
-2.59202e-06
1.39634e-06
-2.58531e-06
1.45304e-06
-2.58369e-06
1.51232e-06
-2.58803e-06
1.57724e-06
-2.59598e-06
-2.61159e-06
1.64423e-06
1.04653e-07
-3.10099e-07
4.57852e-07
1.42231e-07
6.72922e-07
9.1407e-07
7.70072e-07
1.24639e-06
8.13801e-07
1.23578e-06
7.76784e-07
1.10398e-06
7.12118e-07
1.07248e-06
8.60554e-07
5.88604e-07
1.04346e-06
-1.62068e-06
1.10663e-06
-2.66552e-06
1.12478e-06
-2.87567e-06
1.13521e-06
-2.87901e-06
1.14375e-06
-2.82661e-06
1.15635e-06
-2.77184e-06
1.17431e-06
-2.72934e-06
1.19769e-06
-2.69753e-06
1.22622e-06
-2.67339e-06
1.25968e-06
-2.65532e-06
1.29782e-06
-2.64266e-06
1.3404e-06
-2.63512e-06
1.38717e-06
-2.63258e-06
1.43743e-06
-2.63511e-06
1.49263e-06
-2.64194e-06
1.54944e-06
-2.6557e-06
-2.67297e-06
1.61131e-06
8.07915e-08
-4.00123e-07
3.76956e-07
-1.61045e-07
6.20393e-07
6.71963e-07
7.27027e-07
1.13149e-06
7.87609e-07
1.16882e-06
7.76891e-07
1.10023e-06
7.5227e-07
1.08064e-06
1.00363e-06
3.19542e-07
1.18358e-06
-1.8082e-06
1.21761e-06
-2.70595e-06
1.21255e-06
-2.87178e-06
1.19846e-06
-2.86992e-06
1.18995e-06
-2.82043e-06
1.18985e-06
-2.77369e-06
1.19831e-06
-2.73931e-06
1.21404e-06
-2.71446e-06
1.23599e-06
-2.69633e-06
1.26349e-06
-2.68364e-06
1.29601e-06
-2.67587e-06
1.3331e-06
-2.67283e-06
1.37431e-06
-2.67441e-06
1.41976e-06
-2.68054e-06
1.46752e-06
-2.69215e-06
1.5204e-06
-2.70711e-06
-2.72928e-06
1.57488e-06
7.0558e-08
-4.80885e-07
2.51311e-07
-3.47826e-07
5.18798e-07
3.97972e-07
6.58238e-07
9.89732e-07
7.35923e-07
1.08127e-06
7.67254e-07
1.05532e-06
7.94533e-07
1.03501e-06
1.14966e-06
-4.97991e-08
1.3176e-06
-1.98366e-06
1.32157e-06
-2.71412e-06
1.28745e-06
-2.84384e-06
1.25248e-06
-2.83701e-06
1.22743e-06
-2.79841e-06
1.21611e-06
-2.76463e-06
1.21615e-06
-2.74106e-06
1.22499e-06
-2.72466e-06
1.24094e-06
-2.7134e-06
1.26295e-06
-2.70657e-06
1.29024e-06
-2.70395e-06
1.32221e-06
-2.70547e-06
1.35835e-06
-2.71118e-06
1.39782e-06
-2.72124e-06
1.44176e-06
-2.73507e-06
1.487e-06
-2.75518e-06
-2.77861e-06
1.53655e-06
5.61857e-08
-5.45092e-07
1.28986e-07
-4.30645e-07
3.88507e-07
1.35955e-07
5.53378e-07
8.19502e-07
6.56831e-07
9.68222e-07
7.32294e-07
9.6596e-07
8.45572e-07
9.04411e-07
1.27648e-06
-4.91743e-07
1.42349e-06
-2.13729e-06
1.39425e-06
-2.69064e-06
1.33914e-06
-2.79118e-06
1.28682e-06
-2.78905e-06
1.25136e-06
-2.76585e-06
1.23243e-06
-2.74802e-06
1.22622e-06
-2.73665e-06
1.22958e-06
-2.72945e-06
1.24053e-06
-2.72553e-06
1.2578e-06
-2.72482e-06
1.28045e-06
-2.72744e-06
1.30774e-06
-2.73352e-06
1.33904e-06
-2.74319e-06
1.37423e-06