/*--------------------------------*- C++ -*----------------------------------*\
  =========                 |
  \\      /  F ield         | OpenFOAM: The Open Source CFD Toolbox
   \\    /   O peration     | Website:  https://openfoam.org
    \\  /    A nd           | Version:  13
     \\/     M anipulation  |
\*---------------------------------------------------------------------------*/
FoamFile
{
    format      ascii;
    class       surfaceScalarField;
    location    "4";
    object      phi;
}
// * * * * * * * * * * * * * * * * * * * * * * * * * * * * * * * * * * * * * //

dimensions      [0 3 -1 0 0 0 0];

internalField   nonuniform List<scalar> 
12590
(
3.81002e-14
-3.80975e-14
9.87063e-14
-6.06026e-14
1.67009e-13
-6.82991e-14
2.50408e-13
-8.33953e-14
3.51961e-13
-1.01549e-13
4.68155e-13
-1.16191e-13
5.90787e-13
-1.22628e-13
7.09946e-13
-1.19155e-13
8.18905e-13
-1.08956e-13
9.06805e-13
-8.78956e-14
9.65404e-13
-5.85962e-14
9.89755e-13
-2.43467e-14
9.77499e-13
1.22594e-14
9.2879e-13
4.87127e-14
8.46234e-13
8.25592e-14
7.34864e-13
1.11374e-13
6.01572e-13
1.33295e-13
4.53697e-13
1.47879e-13
2.97269e-13
1.56432e-13
1.3769e-13
1.59583e-13
-1.80154e-14
1.5571e-13
-1.55933e-13
1.37922e-13
-2.44324e-13
8.83975e-14
-1.9107e-13
-5.32472e-14
-1.9107e-13
5.02112e-14
-8.83043e-14
1.60884e-13
-1.71271e-13
3.20411e-13
-2.2782e-13
5.32248e-13
-2.95227e-13
7.91054e-13
-3.60349e-13
1.08372e-12
-4.08846e-13
1.39405e-12
-4.32959e-13
1.70322e-12
-4.28313e-13
1.98777e-12
-3.93504e-13
2.22756e-12
-3.27679e-13
2.39329e-12
-2.24319e-13
2.48025e-12
-1.11305e-13
2.48864e-12
3.87092e-15
2.4187e-12
1.1866e-13
2.27664e-12
2.2462e-13
2.07524e-12
3.12788e-13
1.82673e-12
3.81802e-13
1.55848e-12
4.16136e-13
1.28324e-12
4.31683e-13
1.00847e-12
4.34357e-13
7.41918e-13
4.22265e-13
4.95298e-13
3.84549e-13
2.74836e-13
3.08866e-13
9.17878e-14
1.29808e-13
-9.92809e-14
8.746e-14
-1.75759e-13
2.87801e-13
-3.71605e-13
5.82958e-13
-5.22971e-13
9.64376e-13
-6.76639e-13
1.4145e-12
-8.10467e-13
1.90735e-12
-9.01695e-13
2.41174e-12
-9.37335e-13
2.89422e-12
-9.10795e-13
3.32196e-12
-8.21233e-13
3.6672e-12
-6.72918e-13
3.91317e-12
-4.70276e-13
4.0042e-12
-2.02332e-13
3.96446e-12
4.362e-14
3.79679e-12
2.86331e-13
3.51589e-12
5.05529e-13
3.16357e-12
6.6511e-13
2.7586e-12
7.86782e-13
2.3066e-12
8.68138e-13
1.8373e-12
9.00993e-13
1.38361e-12
8.88052e-13
9.68487e-13
8.37397e-13
6.07318e-13
7.45726e-13
3.11975e-13
6.04219e-13
8.84817e-14
3.5331e-13
-1.07983e-14
1.29535e-13
-3.05289e-13
4.25896e-13
-6.67959e-13
8.63912e-13
-9.60981e-13
1.42424e-12
-1.23696e-12
2.0757e-12
-1.46192e-12
2.7779e-12
-1.60389e-12
3.48462e-12
-1.64405e-12
4.14811e-12
-1.57428e-12
4.72382e-12
-1.39694e-12
5.17407e-12
-1.12316e-12
5.47185e-12
-7.68046e-13
5.57263e-12
-3.03106e-13
5.48849e-12
1.27761e-13
5.22789e-12
5.46939e-13
4.86101e-12
8.72414e-13
4.36411e-12
1.16202e-12
3.76877e-12
1.38212e-12
3.12264e-12
1.51428e-12
2.46806e-12
1.55557e-12
1.84225e-12
1.51387e-12
1.27487e-12
1.40478e-12
7.86321e-13
1.23429e-12
3.9436e-13
9.96187e-13
1.11452e-13
6.36226e-13
1.00655e-13
1.7006e-13
-4.75344e-13
5.59502e-13
-1.05739e-12
1.13872e-12
-1.54019e-12
1.87897e-12
-1.97721e-12
2.7363e-12
-2.31924e-12
3.65547e-12
-2.52306e-12
4.57467e-12
-2.56324e-12
5.4316e-12
-2.4312e-12
6.16933e-12
-2.13467e-12
6.74004e-12
-1.69387e-12
7.10851e-12
-1.13651e-12
7.24848e-12
-4.43067e-13
7.13293e-12
2.43313e-13
6.84026e-12
8.39616e-13
6.34966e-12
1.36302e-12
5.68908e-12
1.8226e-12
4.91028e-12
2.16094e-12
4.06666e-12
2.35791e-12
3.21091e-12
2.41133e-12
2.39114e-12
2.33365e-12
1.64752e-12
2.14841e-12
1.00988e-12
1.87194e-12
5.02878e-13
1.5032e-12
1.43246e-13
9.95867e-13
2.43902e-13
2.08565e-13
-6.83903e-13
6.90011e-13
-1.53883e-12
1.41096e-12
-2.26113e-12
2.33433e-12
-2.90056e-12
3.40389e-12
-3.3888e-12
4.54932e-12
-3.66848e-12
5.69272e-12
-3.70663e-12
6.75687e-12
-3.49535e-12
7.67212e-12
-3.04991e-12
8.38074e-12
-2.40248e-12
8.83972e-12
-1.59548e-12
9.03355e-12
-6.36892e-13
8.90766e-12
3.69204e-13
8.56074e-12
1.18654e-12
7.9467e-12
1.97707e-12
7.12534e-12
2.64397e-12
6.15446e-12
3.13182e-12
5.09876e-12
3.4136e-12
4.02418e-12
3.48591e-12
2.99194e-12
3.36589e-12
2.05419e-12
3.08616e-12
1.25148e-12
2.67466e-12
6.18344e-13
2.13634e-12
1.75527e-13
1.43869e-12
4.1943e-13
2.47596e-13
-9.31492e-13
8.22964e-13
-2.11419e-12
1.68928e-12
-3.12745e-12
2.80125e-12
-4.01252e-12
4.09021e-12
-4.67775e-12
5.4701e-12
-5.04836e-12
6.84641e-12
-5.08293e-12
8.12664e-12
-4.77558e-12
9.22819e-12
-4.15145e-12
1.00832e-11
-3.25746e-12
1.0641e-11
-2.15333e-12
1.08849e-11
-8.80791e-13
1.07548e-11
4.99289e-13
1.03311e-11
1.61032e-12
9.59678e-12
2.71137e-12
8.61073e-12
3.63003e-12
7.44081e-12
4.30175e-12
6.16436e-12
4.69005e-12
4.86171e-12
4.78857e-12
3.6085e-12
4.61911e-12
2.46999e-12
4.22468e-12
1.49785e-12
3.64681e-12
7.34859e-13
2.89934e-12
2.07819e-13
1.96574e-12
6.2725e-13
2.87724e-13
-1.21921e-12
9.59925e-13
-2.78639e-12
1.97501e-12
-4.14253e-12
3.27925e-12
-5.31674e-12
4.79112e-12
-6.18962e-12
6.40819e-12
-6.66543e-12
8.01902e-12
-6.69375e-12
9.51556e-12
-6.27211e-12
1.08019e-11
-5.43781e-12
1.17996e-11
-4.25516e-12
1.24504e-11
-2.80413e-12
1.27276e-11
-1.15795e-12
1.25917e-11
6.35225e-13
1.20871e-11
2.11485e-12
1.1224e-11
3.57453e-12
1.00675e-11
4.78647e-12
8.69646e-12
5.67284e-12
7.2006e-12
6.18592e-12
5.67404e-12
6.31514e-12
4.20618e-12
6.08698e-12
2.87437e-12
5.5565e-12
1.73943e-12
4.78175e-12
8.50405e-13
3.78838e-12
2.40821e-13
2.57534e-12
8.68073e-13
3.28188e-13
-1.54739e-12
1.09699e-12
-3.55518e-12
2.25915e-12
-5.30468e-12
3.75238e-12
-6.80995e-12
5.48212e-12
-7.91936e-12
7.32943e-12
-8.51273e-12
9.16606e-12
-8.53037e-12
1.08686e-11
-7.97469e-12
1.23278e-11
-6.89696e-12
1.34533e-11
-5.38069e-12
1.41788e-11
-3.52958e-12
1.44641e-11
-1.4432e-12
1.43523e-11
7.47026e-13
1.37485e-11
2.71859e-12
1.27522e-11
4.57084e-12
1.14304e-11
6.10827e-12
9.87087e-12
7.23239e-12
8.17401e-12
7.88278e-12
6.44496e-12
8.04419e-12
4.78372e-12
7.74822e-12
3.27611e-12
7.06412e-12
1.98989e-12
6.06798e-12
9.77998e-13
4.80028e-12
2.80953e-13
3.27239e-12
1.14903e-12
3.6692e-13
-1.9143e-12
1.22711e-12
-4.41536e-12
2.52746e-12
-6.60502e-12
4.19757e-12
-8.48005e-12
6.13061e-12
-9.85239e-12
8.19202e-12
-1.05741e-11
1.0238e-11
-1.05763e-11
1.21309e-11
-9.86766e-12
1.3749e-11
-8.51503e-12
1.49914e-11
-6.62313e-12
1.57857e-11
-4.32387e-12
1.60906e-11
-1.7481e-12
1.59334e-11
9.04238e-13
1.52537e-11
3.39829e-12
1.41453e-11
5.67929e-12
1.26856e-11
7.56797e-12
1.09716e-11
8.9464e-12
9.11192e-12
9.74243e-12
7.21841e-12
9.9377e-12
5.39554e-12
9.57109e-12
3.73148e-12
8.72817e-12
2.29718e-12
7.50229e-12
1.15002e-12
5.94745e-12
3.42639e-13
4.07977e-12
1.49167e-12
4.01833e-13
-2.31612e-12
1.34355e-12
-5.35707e-12
2.76646e-12
-8.02791e-12
4.59366e-12
-1.03072e-11
6.70765e-12
-1.19664e-11
8.96051e-12
-1.2827e-11
1.11951e-11
-1.28109e-11
1.32617e-11
-1.19342e-11
1.50274e-11
-1.02807e-11
1.63823e-11
-7.97809e-12
1.7248e-11
-5.18953e-12
1.75828e-11
-2.0829e-12
1.73883e-11
1.09876e-12
1.66615e-11
4.12503e-12
1.54789e-11
6.8619e-12
1.39277e-11
9.11922e-12
1.21113e-11
1.07628e-11
1.01416e-11
1.17122e-11
8.12858e-12
1.19507e-11
6.17216e-12
1.15275e-11
4.35455e-12
1.05458e-11
2.74551e-12
9.11133e-12
1.42643e-12
7.26653e-12
4.42108e-13
5.0641e-12
1.93377e-12
4.31572e-13
-2.74768e-12
1.44234e-12
-6.36782e-12
2.96894e-12
-9.5545e-12
4.93014e-12
-1.22684e-11
7.2005e-12
-1.42367e-11
9.62239e-12
-1.52488e-11
1.2029e-11
-1.52175e-11
1.42609e-11
-1.41661e-11
1.6176e-11
-1.21959e-11
1.76567e-11
-9.45879e-12
1.86192e-11
-6.15198e-12
1.90188e-11
-2.48259e-12
1.88475e-11
1.27012e-12
1.81319e-11
4.8406e-12
1.69435e-11
8.05027e-12
1.53731e-11
1.06896e-11
1.35253e-11
1.26105e-11
1.15069e-11
1.37306e-11
9.41635e-12
1.40412e-11
7.33722e-12
1.36066e-11
5.33627e-12
1.25467e-11
3.47314e-12
1.09744e-11
1.84963e-12
8.89003e-12
6.06667e-13
6.30706e-12
2.54044e-12
4.56137e-13
-3.2038e-12
1.52453e-12
-7.4362e-12
3.13813e-12
-1.11681e-11
5.21409e-12
-1.43444e-11
7.62281e-12
-1.66454e-11
1.02014e-11
-1.78274e-11
1.27776e-11
-1.77937e-11
1.51858e-11
-1.65743e-11
1.72781e-11
-1.42881e-11
1.89311e-11
-1.11119e-11
2.00565e-11
-7.27734e-12
2.06047e-11
-3.03082e-12
2.05596e-11
1.31525e-12
1.99648e-11
5.43536e-12
1.88838e-11
9.1313e-12
1.74018e-11
1.21716e-11
1.56145e-11
1.43979e-11
1.36139e-11
1.57311e-11
1.14766e-11
1.61785e-11
9.25776e-12
1.58255e-11
6.99785e-12
1.48066e-11
4.74615e-12
1.32261e-11
2.62941e-12
1.10068e-11
8.90211e-13
8.04624e-12
3.43064e-12
4.77235e-13
-3.68103e-12
1.59714e-12
-8.55609e-12
3.28943e-12
-1.28604e-11
5.47288e-12
-1.65278e-11
8.0175e-12
-1.919e-11
1.07609e-11
-2.05708e-11
1.35304e-11
-2.05632e-11
1.61589e-11
-1.92028e-11
1.84959e-11
-1.6625e-11
2.0415e-11
-1.3031e-11
2.18242e-11
-8.68652e-12
2.26687e-11
-3.8753e-12
2.29037e-11
1.0802e-12
2.2609e-11
5.73007e-12
2.18118e-11
9.92843e-12
2.05731e-11
1.34103e-11
1.89656e-11
1.60054e-11
1.70559e-11
1.76408e-11
1.48875e-11
1.83469e-11
1.24753e-11
1.82376e-11
9.81689e-12
1.7465e-11
6.93917e-12
1.61038e-11
4.00934e-12
1.39366e-11
1.42752e-12
1.0628e-11
4.85815e-12
4.98563e-13
-4.17958e-12
1.67383e-12
-9.73135e-12
3.45193e-12
-1.46385e-11
5.75548e-12
-1.88314e-11
8.4594e-12
-2.18939e-11
1.14069e-11
-2.35183e-11
1.44309e-11
-2.35872e-11
1.7367e-11
-2.2139e-11
2.00668e-11
-1.93248e-11
2.24057e-11
-1.53699e-11
2.42879e-11
-1.05687e-11
2.56641e-11
-5.25149e-12
2.63845e-11
3.59739e-13
2.66617e-11
5.45293e-12
2.64017e-11
1.01883e-11
2.56352e-11
1.41768e-11
2.43855e-11
1.72552e-11
2.26666e-11
1.93597e-11
2.0473e-11
2.05405e-11
1.77693e-11
2.09413e-11
1.44972e-11
2.07371e-11
1.06382e-11
1.99627e-11
6.39144e-12
1.81833e-11
2.38431e-12
1.46351e-11
7.24244e-12
5.2556e-13
-4.70514e-12
1.7739e-12
-1.09797e-11
3.66578e-12
-1.65303e-11
6.12886e-12
-2.12944e-11
9.04805e-12
-2.48131e-11
1.22789e-11
-2.67491e-11
1.56653e-11
-2.69736e-11
1.90507e-11
-2.55244e-11
2.22892e-11
-2.25633e-11
2.52618e-11
-1.83425e-11
2.787e-11
-1.3177e-11
3.00528e-11
-7.43423e-12
3.16856e-11
-1.27306e-12
3.28504e-11
4.28813e-12
3.34692e-11
9.56944e-12
3.35082e-11
1.41378e-11
3.29062e-11
1.78571e-11
3.15783e-11
2.06876e-11
2.9421e-11
2.26977e-11
2.63167e-11
2.40455e-11
2.21386e-11
2.49152e-11
1.68079e-11
2.52934e-11
1.05248e-11
2.44663e-11
4.13034e-12
2.10296e-11
1.13728e-11
5.64482e-13
-5.26964e-12
1.91891e-12
-1.23341e-11
3.97618e-12
-1.85876e-11
6.66842e-12
-2.39867e-11
9.89691e-12
-2.80416e-11
1.35345e-11
-3.03867e-11
1.74408e-11
-3.08799e-11
2.14734e-11
-2.95571e-11
2.54938e-11
-2.65836e-11
2.93838e-11
-2.22325e-11
3.30418e-11
-1.6835e-11
3.63798e-11
-1.07722e-11
3.94694e-11
-4.36266e-12
4.19072e-11
1.85037e-12
4.38859e-11
7.59072e-12
4.5213e-11
1.28107e-11
4.57167e-11
1.73533e-11
4.51738e-11
2.12306e-11
4.33244e-11
2.45471e-11
3.98891e-11
2.74808e-11
3.45959e-11
3.02083e-11
2.72367e-11
3.26526e-11
1.79071e-11
3.37959e-11
7.41692e-12
3.15197e-11
1.87897e-11
6.21642e-13
-5.89132e-12
2.13119e-12
-1.38437e-11
4.42701e-12
-2.08835e-11
7.44836e-12
-2.70081e-11
1.11173e-11
-3.17106e-11
1.53302e-11
-3.45996e-11
1.99679e-11
-3.55176e-11
2.49047e-11
-3.44938e-11
3.00169e-11
-3.16959e-11
3.51876e-11
-2.74031e-11
4.03296e-11
-2.1977e-11
4.53548e-11
-1.57974e-11
5.02505e-11
-9.25834e-12
5.4629e-11
-2.52806e-12
5.85764e-11
3.64336e-12
6.18748e-11
9.51233e-12
6.42141e-11
1.5014e-11
6.52105e-11
2.02342e-11
6.43913e-11
2.53662e-11
6.1197e-11
3.06752e-11
5.49882e-11
3.64171e-11
4.50483e-11
4.25925e-11
3.08439e-11
4.80002e-11
1.29109e-11
4.94527e-11
3.17005e-11
7.02458e-13
-6.59384e-12
2.42935e-12
-1.55707e-11
5.0556e-12
-2.35098e-11
8.53293e-12
-3.04855e-11
1.28085e-11
-3.59862e-11
1.78067e-11
-3.95979e-11
2.34335e-11
-4.11444e-11
2.95824e-11
-4.06427e-11
3.61475e-11
-3.8261e-11
4.30281e-11
-3.42836e-11
5.01238e-11
-2.90727e-11
5.73554e-11
-2.3029e-11
6.46014e-11
-1.65043e-11
7.18635e-11
-9.79007e-12
7.83912e-11
-2.88437e-12
8.45457e-11
3.35788e-12
8.97173e-11
9.84245e-12
9.33878e-11
1.65637e-11
9.48579e-11
2.38961e-11
9.31468e-11
3.23864e-11
8.68273e-11
4.27365e-11
7.38618e-11
5.5558e-11
5.20047e-11
6.98573e-11
2.20781e-11
7.93792e-11
5.37786e-11
8.14361e-13
-7.40829e-12
2.82935e-12
-1.75858e-11
5.89343e-12
-2.6574e-11
9.97311e-12
-3.45652e-11
1.50444e-11
-4.10575e-11
2.10628e-11
-4.56163e-11
2.79621e-11
-4.80437e-11
3.56595e-11
-4.83401e-11
4.40664e-11
-4.66678e-11
5.30957e-11
-4.3313e-11
6.26614e-11
-3.86383e-11
7.26571e-11
-3.30246e-11
8.29597e-11
-2.68069e-11
9.3408e-11
-2.02384e-11
1.0398e-10
-1.34563e-11
1.13894e-10
-6.55608e-12
1.23168e-10
5.69003e-13
1.3097e-10
8.76153e-12
1.36483e-10
1.83829e-11
1.38473e-10
3.03965e-11
1.34765e-10
4.6444e-11
1.22446e-10
6.78776e-11
9.83498e-11
9.39531e-11
6.10506e-11
1.16678e-10
1.14829e-10
5.4254e-13
-7.95093e-12
1.88941e-12
-1.89328e-11
3.95687e-12
-2.86415e-11
6.84086e-12
-3.74493e-11
1.07143e-11
-4.4931e-11
1.5764e-11
-5.0666e-11
2.21504e-11
-5.44302e-11
2.99894e-11
-5.6179e-11
3.9343e-11
-5.60214e-11
5.02174e-11
-5.41873e-11
6.25649e-11
-5.09858e-11
7.62906e-11
-4.67502e-11
9.12628e-11
-4.1779e-11
1.07337e-10
-3.63121e-11
1.24383e-10
-3.0503e-11
1.4223e-10
-2.44032e-11
1.60693e-10
-1.78935e-11
1.8004e-10
-1.05858e-11
1.99973e-10
-1.54952e-12
2.21387e-10
8.98229e-12
2.44346e-10
2.3485e-11
2.69281e-10
4.29431e-11
2.96207e-10
6.7027e-11
3.26368e-10
8.65164e-11
7.0555e-11
3.70642e-10
6.20873e-13
-8.57192e-12
2.18741e-12
-2.04994e-11
4.59493e-12
-3.10492e-11
7.93157e-12
-4.0786e-11
1.23721e-11
-4.93715e-11
1.8112e-11
-5.6406e-11
2.53268e-11
-6.16449e-11
3.41541e-11
-6.50064e-11
4.46847e-11
-6.65519e-11
5.69591e-11
-6.64617e-11
7.09695e-11
-6.49961e-11
8.66606e-11
-6.24412e-11
1.03958e-10
-5.90765e-11
1.22769e-10
-5.5123e-11
1.43007e-10
-5.07407e-11
1.64609e-10
-4.60053e-11
1.87572e-10
-4.08567e-11
2.12058e-10
-3.50723e-11
2.3871e-10
-2.8201e-11
2.67469e-10
-1.97764e-11
2.99451e-10
-8.49765e-12
3.35534e-10
6.86078e-12
3.7585e-10
2.67107e-11
4.14459e-10
4.79067e-11
6.46398e-11
4.20375e-10
7.06969e-13
-9.27902e-12
2.52247e-12
-2.23151e-11
5.32238e-12
-3.38492e-11
9.17981e-12
-4.46435e-11
1.42624e-11
-5.44542e-11
2.0763e-11
-6.29066e-11
2.88618e-11
-6.97437e-11
3.87079e-11
-7.48524e-11
5.04098e-11
-7.82538e-11
6.40314e-11
-8.00833e-11
7.95917e-11
-8.05564e-11
9.7074e-11
-7.99235e-11
1.1643e-10
-7.84323e-11
1.37601e-10
-7.62941e-11
1.6053e-10
-7.36692e-11
1.85172e-10
-7.06481e-11
2.11538e-10
-6.72226e-11
2.39714e-10
-6.32483e-11
2.69903e-10
-5.839e-11
3.02152e-10
-5.20252e-11
3.36654e-10
-4.30001e-11
3.73163e-10
-2.96476e-11
4.09743e-10
-9.86927e-12
4.39109e-10
1.85408e-11
6.105e-11
4.42698e-10
8.04871e-13
-1.0084e-11
2.90129e-12
-2.44116e-11
6.14549e-12
-3.70935e-11
1.05895e-11
-4.90877e-11
1.63842e-11
-6.02489e-11
2.37107e-11
-7.02331e-11
3.27435e-11
-7.87765e-11
4.36326e-11
-8.57414e-11
5.64931e-11
-9.11142e-11
7.14004e-11
-9.49906e-11
8.83898e-11
-9.75457e-11
1.07461e-10
-9.89946e-11
1.28583e-10
-9.95545e-11
1.51707e-10
-9.94174e-11
1.76767e-10
-9.87295e-11
2.03692e-10
-9.75727e-11
2.32407e-10
-9.59375e-11
2.62828e-10
-9.36703e-11
2.94829e-10
-9.03907e-11
3.28146e-10
-8.53418e-11
3.62287e-10
-7.71415e-11
3.96213e-10
-6.35737e-11
4.27649e-10
-4.13056e-11
4.51627e-10
-5.43702e-12
5.22211e-11
4.60456e-10
9.13538e-13
-1.09977e-11
3.32057e-12
-2.68188e-11
7.05436e-12
-4.08274e-11
1.21406e-11
-5.4174e-11
1.87056e-11
-6.6814e-11
2.69104e-11
-7.84379e-11
3.69154e-11
-8.87814e-11
4.88617e-11
-9.76877e-11
6.28611e-11
-1.05114e-10
7.89898e-11
-1.11119e-10
9.72866e-11
-1.15843e-10
1.17755e-10
-1.19463e-10
1.40365e-10
-1.22165e-10
1.65058e-10
-1.24111e-10
1.91747e-10
-1.25418e-10
2.2031e-10
-1.26135e-10
2.5058e-10
-1.26208e-10
2.82327e-10
-1.25417e-10
3.15212e-10
-1.23275e-10
3.48731e-10
-1.18861e-10
3.82139e-10
-1.1055e-10
4.14336e-10
-9.5771e-11
4.43713e-10
-7.06828e-11
4.68127e-10
-2.98512e-11
3.43897e-11
4.85959e-10
1.02991e-12
-1.20277e-11
3.7701e-12
-2.95592e-11
8.02778e-12
-4.50852e-11
1.37977e-11
-5.9944e-11
2.11757e-11
-7.41921e-11
3.02959e-11
-8.75581e-11
4.1297e-11
-9.97825e-11
5.43036e-11
-1.10694e-10
6.94156e-11
-1.20226e-10
8.67011e-11
-1.28405e-10
1.06193e-10
-1.35334e-10
1.27887e-10
-1.41157e-10
1.51745e-10
-1.46023e-10
1.77692e-10
-1.50058e-10
2.05614e-10
-1.5334e-10
2.35346e-10
-1.55868e-10
2.6666e-10
-1.57522e-10
2.99243e-10
-1.58e-10
3.32673e-10
-1.56705e-10
3.66393e-10
-1.52581e-10
3.99739e-10
-1.43896e-10
4.31961e-10
-1.27993e-10
4.62412e-10
-1.01133e-10
4.90948e-10
-5.83875e-11
6.28698e-12
5.1905e-10
1.14994e-12
-1.31778e-11
4.23582e-12
-3.26452e-11
9.03741e-12
-4.9887e-11
1.55152e-11
-6.64219e-11
2.37302e-11
-8.24071e-11
3.37847e-11
-9.76127e-11
4.57899e-11
-1.11788e-10
5.98481e-11
-1.24752e-10
7.60406e-11
-1.36418e-10
9.44204e-11
-1.46784e-10
1.15007e-10
-1.55921e-10
1.37785e-10
-1.63935e-10
1.62702e-10
-1.70939e-10
1.89666e-10
-1.77022e-10
2.18542e-10
-1.82217e-10
2.49144e-10
-1.86469e-10
2.81218e-10
-1.89597e-10
3.1444e-10
-1.91222e-10
3.48407e-10
-1.90673e-10
3.82665e-10
-1.86839e-10
4.16774e-10
-1.78005e-10
4.5047e-10
-1.61689e-10
4.83913e-10
-1.34576e-10
5.18164e-10
-9.26386e-11
-3.15083e-11
5.55959e-10
1.2694e-12
-1.44474e-11
4.70265e-12
-3.60786e-11
1.00525e-11
-5.52369e-11
1.72436e-11
-7.36132e-11
2.62997e-11
-9.14632e-11
3.7288e-11
-1.08601e-10
5.02889e-11
-1.24789e-10
6.53776e-11
-1.39841e-10
8.26128e-11
-1.53653e-10
1.02028e-10
-1.66199e-10
1.23626e-10
-1.77519e-10
1.47376e-10
-1.87685e-10
1.73213e-10
-1.96776e-10
2.01034e-10
-2.04842e-10
2.30693e-10
-2.11875e-10
2.62e-10
-2.17776e-10
2.94715e-10
-2.22312e-10
3.28551e-10
-2.25058e-10
3.63193e-10
-2.25314e-10
3.98348e-10
-2.21995e-10
4.33858e-10
-2.13514e-10
4.6987e-10
-1.97701e-10
5.07108e-10
-1.71814e-10
5.47226e-10
-1.32757e-10
-7.75375e-11
5.93255e-10
1.3843e-12
-1.58318e-11
5.15606e-12
-3.98505e-11
1.1043e-11
-6.11241e-11
1.89346e-11
-8.15049e-11
2.88164e-11
-1.01345e-10
4.07193e-11
-1.20504e-10
5.46908e-11
-1.3876e-10
7.0777e-11
-1.55927e-10
8.90111e-11
-1.71887e-10
1.09405e-10
-1.86593e-10
1.31944e-10
-2.00058e-10
1.56583e-10
-2.12324e-10
1.83247e-10
-2.2344e-10
2.11826e-10
-2.33421e-10
2.42178e-10
-2.42227e-10
2.74127e-10
-2.49725e-10
3.07468e-10
-2.55653e-10
3.41982e-10
-2.59572e-10
3.77466e-10
-2.60798e-10
4.13803e-10
-2.58333e-10
4.51078e-10
-2.50789e-10
4.8974e-10
-2.36363e-10
5.30829e-10
-2.12903e-10
5.76207e-10
-1.78135e-10
-1.30096e-10
6.28765e-10
1.49117e-12
-1.73231e-11
5.58315e-12
-4.39427e-11
1.19823e-11
-6.75233e-11
2.05445e-11
-9.00672e-11
3.12184e-11
-1.12019e-10
4.3999e-11
-1.33285e-10
5.89002e-11
-1.53661e-10
7.59381e-11
-1.72965e-10
9.512e-11
-1.91069e-10
1.16436e-10
-2.07909e-10
1.39855e-10
-2.23476e-10
1.6532e-10
-2.37789e-10
1.92749e-10
-2.50869e-10
2.22034e-10
-2.62707e-10
2.53045e-10
-2.73238e-10
2.85631e-10
-2.82312e-10
3.19637e-10
-2.89659e-10
3.54921e-10
-2.94855e-10
3.91393e-10
-2.97271e-10
4.29091e-10
-2.9603e-10
4.68278e-10
-2.89976e-10
5.09592e-10
-2.77677e-10
5.542e-10
-2.57511e-10
6.03947e-10
-2.27882e-10
-1.87565e-10
6.61416e-10
1.58722e-12
-1.89105e-11
5.97317e-12
-4.83288e-11
1.28474e-11
-7.43977e-11
2.20358e-11
-9.92557e-11
3.34522e-11
-1.23436e-10
4.70571e-11
-1.46889e-10
6.28317e-11
-1.69436e-10
8.07629e-11
-1.90896e-10
1.00833e-10
-2.11139e-10
1.23011e-10
-2.30088e-10
1.47252e-10
-2.47717e-10
1.7349e-10
-2.64027e-10
2.0164e-10
-2.79019e-10
2.31602e-10
-2.92669e-10
2.63263e-10
-3.04899e-10
2.96507e-10
-3.15556e-10
3.3123e-10
-3.24382e-10
3.67364e-10
-3.30989e-10
4.04921e-10
-3.34828e-10
4.44056e-10
-3.35165e-10
4.85151e-10
-3.31072e-10
5.28933e-10
-3.21458e-10
5.76576e-10
-3.05155e-10
6.29786e-10
-2.81091e-10
-2.48568e-10
6.90789e-10
1.67036e-12
-2.05811e-11
6.31779e-12
-5.29764e-11
1.36203e-11
-8.17004e-11
2.3378e-11
-1.09014e-10
3.54733e-11
-1.35531e-10
4.98345e-11
-1.61251e-10
6.6412e-11
-1.86013e-10
8.51653e-11
-2.0965e-10
1.06053e-10
-2.32026e-10
1.29027e-10
-2.53062e-10
1.54028e-10
-2.72718e-10
1.80986e-10
-2.90984e-10
2.09817e-10
-3.0785e-10
2.40432e-10
-3.23283e-10
2.72738e-10
-3.37205e-10
3.06654e-10
-3.49472e-10
3.42126e-10
-3.59854e-10
3.79153e-10
-3.68016e-10
4.17825e-10
-3.735e-10
4.58378e-10
-3.75718e-10
5.01264e-10
-3.73959e-10
5.4723e-10
-3.67424e-10
5.97385e-10
-3.5531e-10
6.53242e-10
-3.36949e-10
-3.12004e-10
7.16678e-10
1.73923e-12
-2.23205e-11
6.61113e-12
-5.78485e-11
1.42878e-11
-8.93773e-11
2.45482e-11
-1.19274e-10
3.72472e-11
-1.4823e-10
5.2284e-11
-1.76287e-10
6.95811e-11
-2.0331e-10
8.9073e-11
-2.29141e-10
1.10697e-10
-2.53651e-10
1.3439e-10
-2.76754e-10
1.60083e-10
-2.98411e-10
1.877e-10
-3.18602e-10
2.17164e-10
-3.37314e-10
2.48395e-10
-3.54515e-10
2.81325e-10
-3.70135e-10
3.15904e-10
-3.84051e-10
3.5212e-10
-3.9607e-10
3.90025e-10
-4.05921e-10
4.29768e-10
-4.13242e-10
4.71635e-10
-4.17585e-10
5.16106e-10
-4.1843e-10
5.63905e-10
-4.15223e-10
6.16044e-10
-4.07449e-10
6.7383e-10
-3.94735e-10
-3.76996e-10
7.38822e-10
1.7931e-12
-2.41137e-11
6.84964e-12
-6.29052e-11
1.48412e-11
-9.7369e-11
2.55305e-11
-1.29963e-10
3.87491e-11
-1.61449e-10
5.43706e-11
-1.91909e-10
7.22931e-11
-2.21233e-10
9.24287e-11
-2.49277e-10
1.14697e-10
-2.75919e-10
1.3902e-10
-3.01078e-10
1.65322e-10
-3.24712e-10
1.93526e-10
-3.46805e-10
2.23557e-10
-3.67345e-10
2.5535e-10
-3.86308e-10
2.88855e-10
-4.0364e-10
3.2405e-10
-4.19245e-10
3.60957e-10
-4.32978e-10
3.99668e-10
-4.44632e-10
4.40366e-10
-4.5394e-10
4.83365e-10
-4.60584e-10
5.29143e-10
-4.64208e-10
5.78377e-10
-4.64458e-10
6.31968e-10
-4.61039e-10
6.91029e-10
-4.53796e-10
-4.42811e-10
7.56844e-10
1.83182e-12
-2.59457e-11
7.03184e-12
-6.81054e-11
1.52761e-11
-1.05613e-10
2.63158e-11
-1.41003e-10
3.99636e-11
-1.75097e-10
5.60715e-11
-2.08017e-10
7.45164e-11
-2.39678e-10
9.51912e-11
-2.69952e-10
1.18e-10
-2.98728e-10
1.42854e-10
-3.25932e-10
1.6967e-10
-3.51528e-10
1.9837e-10
-3.75505e-10
2.28885e-10
-3.9786e-10
2.61159e-10
-4.18582e-10
2.95159e-10
-4.37639e-10
3.30883e-10
-4.5497e-10
3.68381e-10
-4.70475e-10
4.07766e-10
-4.84016e-10
4.49242e-10
-4.95416e-10
4.93128e-10
-5.04469e-10
5.3988e-10
-5.1096e-10
5.90117e-10
-5.14695e-10
6.44625e-10
-5.15546e-10
7.04343e-10
-5.13514e-10
-5.08794e-10
7.70326e-10
1.85568e-12
-2.78016e-11
7.15802e-12
-7.3408e-11
1.55918e-11
-1.14047e-10
2.69014e-11
-1.52313e-10
4.08846e-11
-1.8908e-10
5.73756e-11
-2.24508e-10
7.62337e-11
-2.58536e-10
9.7336e-11
-2.91054e-10
1.20573e-10
-3.21965e-10
1.45847e-10
-3.51206e-10
1.73068e-10
-3.7875e-10
2.02159e-10
-4.04596e-10
2.33052e-10
-4.28754e-10
2.65702e-10
-4.51231e-10
3.00085e-10
-4.72023e-10
3.36217e-10
-4.91102e-10
3.74159e-10
-5.08418e-10
4.1404e-10
-5.23897e-10
4.56068e-10
-5.37444e-10
5.0055e-10
-5.48952e-10
5.4791e-10
-5.58321e-10
5.98699e-10
-5.65483e-10
6.53593e-10
-5.7044e-10
7.1338e-10
-5.73302e-10
-5.74337e-10
7.78923e-10
1.86539e-12
-2.96672e-11
7.22989e-12
-7.87727e-11
1.57909e-11
-1.22609e-10
2.72898e-11
-1.63812e-10
4.15134e-11
-2.03303e-10
5.82823e-11
-2.41277e-10
7.74413e-11
-2.77695e-10
9.88542e-11
-3.12467e-10
1.22401e-10
-3.45511e-10
1.47975e-10
-3.76779e-10
1.75482e-10
-4.06257e-10
2.04842e-10
-4.33956e-10
2.35992e-10
-4.59903e-10
2.68889e-10
-4.84128e-10
3.03518e-10
-5.06652e-10
3.39902e-10
-5.27486e-10
3.78112e-10
-5.46627e-10
4.18275e-10
-5.64061e-10
4.60593e-10
-5.79763e-10
5.05354e-10
-5.93712e-10
5.52937e-10
-6.05904e-10
6.03823e-10
-6.1637e-10
6.58589e-10
-6.25206e-10
7.17888e-10
-6.32601e-10
-6.38871e-10
7.82422e-10
1.86188e-12
-3.15293e-11
7.25038e-12
-8.41614e-11
1.58784e-11
-1.31237e-10
2.74879e-11
-1.75422e-10
4.18587e-11
-2.17674e-10
5.88008e-11
-2.58219e-10
7.81476e-11
-2.97041e-10
9.97524e-11
-3.34071e-10
1.23486e-10
-3.69245e-10
1.49234e-10
-4.02528e-10
1.76899e-10
-4.33921e-10
2.06398e-10
-4.63455e-10
2.37668e-10
-4.91173e-10
2.70667e-10
-5.17127e-10
3.05385e-10
-5.4137e-10
3.41846e-10
-5.63947e-10
3.8012e-10
-5.84901e-10
4.20328e-10
-6.04269e-10
4.62658e-10
-6.22093e-10
5.07367e-10
-6.38421e-10
5.54788e-10
-6.53325e-10
6.05333e-10
-6.66915e-10
6.59483e-10
-6.79356e-10
7.17775e-10
-6.90894e-10
-7.01869e-10
7.80774e-10
1.84637e-12
-3.33758e-11
7.22334e-12
-8.95385e-11
1.58616e-11
-1.39875e-10
2.75068e-11
-1.87067e-10
4.19348e-11
-2.32102e-10
5.8948e-11
-2.75232e-10
7.83716e-11
-3.16465e-10
1.0005e-10
-3.5575e-10
1.23847e-10
-3.93042e-10
1.49642e-10
-4.28323e-10
1.77332e-10
-4.61612e-10
2.06832e-10
-4.92954e-10
2.38076e-10
-5.22417e-10
2.71023e-10
-5.50074e-10
3.0566e-10
-5.76007e-10
3.42009e-10
-6.00296e-10
3.80132e-10
-6.23024e-10
4.2014e-10
-6.44277e-10
4.62198e-10
-6.6415e-10
5.06528e-10
-6.82751e-10
5.53415e-10
-7.00212e-10
6.03203e-10
-7.16703e-10
6.56288e-10
-7.3244e-10
7.13101e-10
-7.47707e-10
-7.62858e-10
7.7409e-10
1.82016e-12
-3.51962e-11
7.15326e-12
-9.48719e-11
1.57493e-11
-1.48472e-10
2.73602e-11
-1.98678e-10
4.17604e-11
-2.46503e-10
5.87478e-11
-2.9222e-10
7.81412e-11
-3.35858e-10
9.97791e-11
-3.77388e-10
1.23518e-10
-4.16781e-10
1.49233e-10
-4.54037e-10
1.76816e-10
-4.89194e-10
2.06176e-10
-5.22315e-10
2.37247e-10
-5.53487e-10
2.69981e-10
-5.82809e-10
3.04363e-10
-6.10388e-10
3.40406e-10
-6.36339e-10
3.78162e-10
-6.6078e-10
4.17725e-10
-6.8384e-10
4.59233e-10
-7.05658e-10
5.02873e-10
-7.26391e-10
5.4888e-10
-7.46219e-10
5.97533e-10
-7.65356e-10
6.49148e-10
-7.84055e-10
7.04064e-10
-8.02623e-10
-8.2142e-10
7.62625e-10
1.78464e-12
-3.6981e-11
7.04498e-12
-1.00132e-10
1.55514e-11
-1.56978e-10
2.70636e-11
-2.1019e-10
4.13574e-11
-2.60797e-10
5.82283e-11
-3.09091e-10
7.7491e-11
-3.55121e-10
9.89791e-11
-3.98876e-10
1.22544e-10
-4.40346e-10
1.48056e-10
-4.79549e-10
1.754e-10
-5.16539e-10
2.04485e-10
-5.51399e-10
2.35234e-10
-5.84237e-10
2.67599e-10
-6.15173e-10
3.01553e-10
-6.44342e-10
3.37101e-10
-6.71887e-10
3.74281e-10
-6.9796e-10
4.13165e-10
-7.22724e-10
4.53864e-10
-7.46357e-10
4.96528e-10
-7.69054e-10
5.41341e-10
-7.91033e-10
5.88523e-10
-8.12538e-10
6.38316e-10
-8.33849e-10
6.90978e-10
-8.55284e-10
-8.77202e-10
7.4676e-10
1.74119e-12
-3.87224e-11
6.90351e-12
-1.05295e-10
1.5278e-11
-1.65353e-10
2.66339e-11
-2.21546e-10
4.075e-11
-2.74913e-10
5.74213e-11
-3.25762e-10
7.64603e-11
-3.7416e-10
9.76969e-11
-4.20112e-10
1.20979e-10
-4.63627e-10
1.4617e-10
-5.0474e-10
1.73154e-10
-5.43522e-10
2.0183e-10
-5.80075e-10
2.32119e-10
-6.14525e-10
2.63962e-10
-6.47016e-10
2.97325e-10
-6.77705e-10
3.32199e-10
-7.06762e-10
3.68606e-10
-7.34367e-10
4.06597e-10
-7.60715e-10
4.46252e-10
-7.86013e-10
4.87683e-10
-8.10486e-10
5.3103e-10
-8.34379e-10
5.76454e-10
-8.57962e-10
6.24132e-10
-8.81527e-10
6.74245e-10
-9.05396e-10
-9.29921e-10
7.26964e-10
1.69118e-12
-4.04138e-11
6.73378e-12
-1.10338e-10
1.49395e-11
-1.73559e-10
2.60881e-11
-2.32695e-10
3.9963e-11
-2.88788e-10
5.63602e-11
-3.42159e-10
7.50912e-11
-3.92891e-10
9.59838e-11
-4.41005e-10
1.18882e-10
-4.86525e-10
1.43646e-10
-5.29505e-10
1.70154e-10
-5.7003e-10
1.983e-10
-6.08221e-10
2.27997e-10
-6.44222e-10
2.59179e-10
-6.78197e-10
2.91799e-10
-7.10325e-10
3.25837e-10
-7.408e-10
3.61294e-10
-7.69825e-10
3.982e-10
-7.9762e-10
4.36605e-10
-8.24418e-10
4.76586e-10
-8.50466e-10
5.18237e-10
-8.76031e-10
5.61668e-10
-9.01393e-10
6.06995e-10
-9.26854e-10
6.54332e-10
-9.52733e-10
-9.79366e-10
7.03776e-10
1.63584e-12
-4.20499e-11
6.54059e-12
-1.15243e-10
1.45461e-11
-1.81564e-10
2.54434e-11
-2.43593e-10
3.90214e-11
-3.02366e-10
5.50787e-11
-3.58216e-10
7.34271e-11
-4.11239e-10
9.38928e-11
-4.61471e-10
1.16317e-10
-5.0895e-10
1.40558e-10
-5.53745e-10
1.66486e-10
-5.95959e-10
1.93992e-10
-6.35726e-10
2.22979e-10
-6.7321e-10
2.53373e-10
-7.08591e-10
2.85116e-10
-7.42069e-10
3.18172e-10
-7.73856e-10
3.52526e-10
-8.04179e-10
3.88182e-10
-8.33276e-10
4.25165e-10
-8.614e-10
4.63515e-10
-8.88816e-10
5.03286e-10
-9.15802e-10
5.44541e-10
-9.42647e-10
5.87341e-10
-9.69654e-10
6.3174e-10
-9.97132e-10
-1.0254e-09
6.77771e-10
1.57638e-12
-4.36265e-11
6.32839e-12
-1.19995e-10
1.41074e-11
-1.89343e-10
2.4716e-11
-2.54201e-10
3.79497e-11
-3.156e-10
5.36105e-11
-3.73877e-10
7.15112e-11
-4.2914e-10
9.14777e-11
-4.81437e-10
1.1335e-10
-5.30822e-10
1.36981e-10
-5.77376e-10
1.62239e-10
-6.21216e-10
1.89006e-10
-6.62493e-10
2.1718e-10
-7.01384e-10
2.46676e-10
-7.38087e-10
2.77426e-10
-7.72818e-10
3.09378e-10
-8.05808e-10
3.42499e-10
-8.37299e-10
3.7677e-10
-8.67548e-10
4.12191e-10
-8.96821e-10
4.48769e-10
-9.25395e-10
4.86522e-10
-9.53555e-10
5.25469e-10
-9.81594e-10
5.65623e-10
-1.00981e-09
6.06985e-10
-1.03849e-09
-1.06795e-09
6.49534e-10
1.51382e-12
-4.51405e-11
6.10131e-12
-1.24583e-10
1.36324e-11
-1.96875e-10
2.39215e-11
-2.64491e-10
3.67712e-11
-3.28449e-10
5.19874e-11
-3.89093e-10
6.93854e-11
-4.46538e-10
8.8791e-11
-5.00843e-10
1.10043e-10
-5.52073e-10
1.32991e-10
-6.00324e-10
1.575e-10
-6.45725e-10
1.83446e-10
-6.88439e-10
2.1072e-10
-7.28658e-10
2.39226e-10
-7.66593e-10
2.68885e-10
-8.02477e-10
2.99632e-10
-8.36555e-10
3.31415e-10
-8.69083e-10
3.64197e-10
-9.0033e-10
3.9795e-10
-9.30574e-10
4.32654e-10
-9.60099e-10
4.68293e-10
-9.89194e-10
5.04849e-10
-1.01815e-09
5.42292e-10
-1.04725e-09
5.80579e-10
-1.07678e-09
-1.10701e-09
6.19639e-10
1.44911e-12
-4.65899e-11
5.86307e-12
-1.28997e-10
1.31294e-11
-2.04141e-10
2.30742e-11
-2.74436e-10
3.55074e-11
-3.40883e-10
5.02401e-11
-4.03826e-10
6.70897e-11
-4.63387e-10
8.58833e-11
-5.19636e-10
1.06458e-10
-5.72648e-10
1.28664e-10
-6.22529e-10
1.52358e-10
-6.6942e-10
1.77414e-10
-7.13495e-10
2.03715e-10
-7.54958e-10
2.31157e-10
-7.94035e-10
2.59648e-10
-8.30969e-10
2.89111e-10
-8.66017e-10
3.19479e-10
-8.9945e-10
3.50693e-10
-9.31545e-10
3.82705e-10
-9.62586e-10
4.15469e-10
-9.92863e-10
4.4894e-10
-1.02266e-09
4.83065e-10
-1.05227e-09
5.17782e-10
-1.08197e-09
5.53007e-10
-1.11201e-09
-1.14263e-09
5.8863e-10
1.38306e-12
-4.79731e-11
5.61703e-12
-1.33231e-10
1.26059e-11
-2.1113e-10
2.21872e-11
-2.84017e-10
3.41787e-11
-3.52874e-10
4.83965e-11
-4.18044e-10
6.46614e-11
-4.79652e-10
8.28019e-11
-5.37777e-10
1.02655e-10
-5.92502e-10
1.24068e-10
-6.43942e-10
1.46898e-10
-6.92249e-10
1.71009e-10
-7.37607e-10
1.96281e-10
-7.8023e-10
2.22601e-10
-8.20354e-10
2.49867e-10
-8.58235e-10
2.77989e-10
-8.9414e-10
3.06885e-10
-9.28346e-10
3.36482e-10
-9.61141e-10
3.6671e-10
-9.92814e-10
3.97501e-10
-1.02365e-09
4.28784e-10
-1.05395e-09
4.6048e-10
-1.08397e-09
4.92497e-10
-1.11398e-09
5.24721e-10
-1.14423e-09
-1.17492e-09
5.57008e-10
1.3164e-12
-4.92898e-11
5.36614e-12
-1.37281e-10
1.20686e-11
-2.17833e-10
2.12723e-11
-2.93221e-10