/*--------------------------------*- C++ -*----------------------------------*\
  =========                 |
  \\      /  F ield         | OpenFOAM: The Open Source CFD Toolbox
   \\    /   O peration     | Website:  https://openfoam.org
    \\  /    A nd           | Version:  13
     \\/     M anipulation  |
\*---------------------------------------------------------------------------*/
FoamFile
{
    format      ascii;
    class       volVectorField;
    location    "4";
    object      U;
}
// * * * * * * * * * * * * * * * * * * * * * * * * * * * * * * * * * * * * * //

dimensions      [0 1 -1 0 0 0 0];

internalField   nonuniform List<vector> 
6440
(
(0.00259439 0.00128713 0)
(0.00620103 0.00253531 0)
(0.00903246 0.00318946 -1.8446e-15)
(0.0110526 0.00359454 1.86293e-15)
(0.012466 0.00384545 0)
(0.0131587 0.00423246 -3.73976e-15)
(0.0135562 0.00461494 3.62465e-15)
(0.0134951 0.00515563 0)
(0.0135645 0.00563586 0)
(0.0135142 0.00627293 0)
(0.0139513 0.00682792 6.85854e-15)
(0.0143567 0.00759623 -1.3859e-14)
(0.0153142 0.00833438 6.80693e-15)
(0.0163275 0.00917376 0)
(0.0181692 0.00969269 -1.37876e-14)
(0.0204855 0.00993112 1.42558e-14)
(0.0243292 0.00976067 0)
(0.0293211 0.00904024 0)
(0.0355997 0.00766899 0)
(0.0419276 0.00629149 0)
(0.0473528 0.00557025 -1.11511e-14)
(0.0499512 0.00619797 2.15901e-14)
(0.0483133 0.00810266 -1.05377e-14)
(0.0394244 0.0119682 -1.06211e-14)
(0.0166766 0.0133001 9.17033e-15)
(0.00402345 0.0060985 0)
(0.00841697 0.0108893 0)
(0.0108277 0.0128494 -1.92244e-15)
(0.0118498 0.0139239 1.83171e-15)
(0.0119313 0.0146642 0)
(0.011321 0.0155492 -3.33907e-15)
(0.0102758 0.0164983 6.37206e-15)
(0.00914542 0.0176639 -3.09116e-15)
(0.00829794 0.0188541 0)
(0.00793252 0.0202152 0)
(0.00820901 0.0216633 0)
(0.00910489 0.0233359 -5.78409e-15)
(0.0107096 0.0250138 5.7606e-15)
(0.0130693 0.0266702 5.84996e-15)
(0.0165093 0.0279711 -5.94034e-15)
(0.0210279 0.0287834 0)
(0.0270491 0.0286361 0)
(0.0347065 0.0278836 0)
(0.0447297 0.0273011 0)
(0.056109 0.0279855 0)
(0.0674802 0.0305194 -1.40144e-14)
(0.0751615 0.0349735 1.32483e-14)
(0.0728612 0.0411657 0)
(0.0575889 0.0474233 -1.15389e-14)
(0.0226147 0.0386884 1.85611e-14)
(0.00415345 0.0133888 0)
(0.00722498 0.0229866 0)
(0.00751645 0.0259373 0)
(0.00656924 0.0269954 0)
(0.00495339 0.0276677 0)
(0.00299668 0.0284601 0)
(0.00102379 0.0294127 2.70439e-15)
(-0.000670643 0.0304841 -2.61984e-15)
(-0.00177729 0.0315479 0)
(-0.00200307 0.0325662 0)
(-0.00122033 0.0334476 0)
(0.000410983 0.0344495 0)
(0.00271155 0.035509 0)
(0.00576148 0.0364054 5.14743e-15)
(0.00967537 0.0367834 -1.58567e-14)
(0.0141786 0.0361952 1.10203e-14)
(0.0196769 0.0342393 0)
(0.0265973 0.0314834 0)
(0.0359089 0.0289127 0)
(0.0483301 0.0284894 0)
(0.0639385 0.0331989 0)
(0.0789107 0.044904 0)
(0.0826737 0.0608778 1.37012e-14)
(0.0641769 0.0712085 -1.13403e-14)
(0.0262543 0.0547552 8.92643e-15)
(0.00386789 0.0212592 0)
(0.00580974 0.0361768 0)
(0.00487686 0.0399334 -1.49491e-15)
(0.00309616 0.0405588 1.40603e-15)
(0.00106974 0.0406989 0)
(-0.000974105 0.040955 -2.55813e-15)
(-0.00281601 0.0413091 2.45998e-15)
(-0.00412507 0.0416616 0)
(-0.00450523 0.0418495 4.72664e-15)
(-0.00375007 0.0418544 -4.71032e-15)
(-0.00185003 0.0418235 4.7313e-15)
(0.000742124 0.041899 -9.62791e-15)
(0.00379396 0.0419699 4.89803e-15)
(0.00720086 0.0419151 0)
(0.0108739 0.0412148 0)
(0.014315 0.0392064 0)
(0.0178011 0.0353633 1.0544e-14)
(0.0220336 0.0302909 1.19127e-21)
(0.0284852 0.0252105 -1.02257e-14)
(0.0387574 0.022776 0)
(0.0547941 0.0275384 0)
(0.0756973 0.0446113 1.30889e-14)
(0.087603 0.0703043 -1.52696e-14)
(0.0682153 0.086292 -1.10625e-14)
(0.0277371 0.0639544 1.74187e-14)
(0.00340396 0.0291136 0)
(0.00422077 0.0492563 0)
(0.00243257 0.0536877 -1.33974e-15)
(0.000203944 0.0538062 1.26418e-15)
(-0.0021371 0.0532947 0)
(-0.00440514 0.052814 -2.30887e-15)
(-0.00626219 0.0522868 2.24072e-15)
(-0.00731437 0.0515054 0)
(-0.00710961 0.0503737 4.3701e-15)
(-0.00525514 0.0490865 -4.42694e-15)
(-0.00186016 0.0479733 4.52458e-15)
(0.00235253 0.0472708 -9.33677e-15)
(0.00692202 0.0469801 4.82022e-15)
(0.0115195 0.0468931 0)
(0.0156212 0.046229 1.04011e-14)
(0.0184159 0.043951 -1.085e-14)
(0.0200376 0.0390977 1.04448e-14)
(0.0213054 0.0322138 -1.6602e-20)
(0.0240753 0.0244085 -9.59638e-15)
(0.0306232 0.0185972 0)
(0.043867 0.0203587 9.6466e-15)
(0.0655539 0.0376943 -1.93981e-19)
(0.0860322 0.0717817 -1.52007e-14)
(0.0692185 0.0927799 -1.12886e-14)
(0.0275159 0.0692749 8.60916e-15)
(0.00266318 0.0375473 0)
(0.00193611 0.0627197 0)
(-0.00109927 0.0675573 -1.18574e-15)
(-0.0042886 0.0671204 1.11603e-15)
(-0.00751017 0.0659227 0)
(-0.0105603 0.0645064 -2.04944e-15)
(-0.0129893 0.0626477 1.99305e-15)
(-0.0141309 0.0601885 0)
(-0.0132572 0.0571828 3.98977e-15)
(-0.0100204 0.0541219 -4.09953e-15)
(-0.00479197 0.0516979 4.27191e-15)
(0.00162082 0.0503623 -8.98747e-15)
(0.00866592 0.050255 4.72162e-15)
(0.0155397 0.0509909 0)
(0.0212657 0.0513617 -1.04113e-14)
(0.0244546 0.0497861 1.0924e-14)
(0.0250954 0.0447874 1.05187e-14)
(0.0240441 0.0367908 -3.82177e-20)
(0.0233656 0.0265794 -9.33858e-15)
(0.0255566 0.0169107 0)
(0.0340936 0.0136251 -8.75129e-15)
(0.051994 0.0265919 1.90643e-14)
(0.0743604 0.0631263 -1.33926e-14)
(0.0686695 0.0928827 -1.12468e-14)
(0.0251596 0.0721353 8.53074e-15)
(0.00161203 0.0473067 0)
(-0.00122278 0.0775215 0)
(-0.00604373 0.0825127 -1.03853e-15)
(-0.0107515 0.0814424 9.77468e-16)
(-0.0154084 0.07934 0)
(-0.0197453 0.0765715 -1.79895e-15)
(-0.0228919 0.0728269 1.77026e-15)
(-0.02388 0.0680138 0)
(-0.0218373 0.0625669 3.6432e-15)
(-0.0164916 0.0574867 -3.83773e-15)
(-0.00868824 0.0537322 4.09065e-15)
(0.000502536 0.052014 -8.75645e-15)
(0.0103302 0.0525359 4.68308e-15)
(0.0195926 0.0545419 0)
(0.0270461 0.0563253 0)
(0.0312912 0.055893 0)
(0.0322357 0.0515562 1.0682e-14)
(0.0300322 0.0432829 -6.5448e-20)
(0.0270565 0.0316004 -9.39591e-15)
(0.0253662 0.0185694 0)
(0.0281047 0.0101316 0)
(0.038685 0.0152869 8.59203e-15)
(0.0559783 0.0473725 -1.10048e-14)
(0.0609697 0.0866224 -1.15648e-14)
(0.0208108 0.0718373 8.54644e-15)
(0.00022465 0.0593947 0)
(-0.00501535 0.0947566 0)
(-0.0118522 0.0994826 -9.0784e-16)
(-0.0183518 0.0974493 8.55728e-16)
(-0.0245516 0.0940084 0)
(-0.0300175 0.0892772 -1.59821e-15)
(-0.0336035 0.0828842 1.58796e-15)
(-0.0337903 0.0750379 0)
(-0.0293347 0.0667871 3.43225e-15)
(-0.0205635 0.059725 -3.71996e-15)
(-0.00905003 0.055244 4.07338e-15)
(0.00367926 0.0540985 -8.94141e-15)
(0.0160844 0.0560781 4.82002e-15)
(0.0266083 0.0597802 0)
(0.0345509 0.0630267 0)
(0.0395621 0.063603 0)
(0.0413777 0.060015 1.09667e-14)
(0.0402003 0.0519555 -1.00686e-19)
(0.0369644 0.0396965 -9.80336e-15)
(0.0330062 0.0246601 0)
(0.0307765 0.0109825 0)
(0.0335407 0.00837934 8.1661e-15)
(0.0415563 0.0307799 -9.55185e-15)
(0.0484235 0.0747514 -1.22011e-14)
(0.0167499 0.0679453 1.72299e-14)
(-0.00147897 0.0744977 0)
(-0.00907928 0.114917 0)
(-0.0179751 0.118637 0)
(-0.026274 0.115144 0)
(-0.033969 0.109728 1.45465e-15)
(-0.0404586 0.102241 -1.43138e-15)
(-0.0440767 0.0923984 1.44834e-15)
(-0.0427829 0.0807528 -1.51611e-15)
(-0.0352756 0.0692456 3.3002e-15)
(-0.0224669 0.0604818 2.37401e-20)
(-0.00669895 0.0562468 1.67365e-20)
(0.00983256 0.0569437 -4.5497e-15)
(0.0247168 0.0616232 -4.89031e-15)
(0.0362117 0.06784 1.0423e-14)
(0.0441733 0.0729467 -1.65116e-14)
(0.0495681 0.0743895 1.14171e-14)
(0.053118 0.0709527 0)
(0.0547553 0.0628224 1.13252e-14)
(0.0537793 0.0502661 -1.07402e-14)
(0.0501449 0.034231 9.90485e-15)
(0.0452201 0.0176109 -1.55415e-19)
(0.0415858 0.00907711 -2.02932e-19)
(0.0414446 0.020321 -9.27431e-15)
(0.0424793 0.0623251 0)
(0.0147684 0.0610616 -8.94014e-15)
(-0.00326595 0.0930791 0)
(-0.0131947 0.137848 0)
(-0.0242967 0.139938 0)
(-0.0346849 0.134412 0)
(-0.0441725 0.126236 -1.29734e-15)
(-0.0518108 0.115135 1.2903e-15)
(-0.0556022 0.10094 -1.32111e-15)
(-0.0529749 0.084825 1.41706e-15)
(-0.0428274 0.0699696 0)
(-0.0273186 0.0599658 -3.73804e-15)
(-0.00951511 0.0562343 -1.27345e-20)
(0.00898123 0.0587507 4.2661e-15)
(0.0262247 0.0666116 0)
(0.0398958 0.0760462 -5.10062e-15)
(0.0492417 0.0825451 1.66534e-14)
(0.0558175 0.0841641 -1.17824e-14)
(0.0617929 0.0802261 1.22196e-14)
(0.067363 0.071708 -1.24385e-14)
(0.070574 0.0591295 0)
(0.0692876 0.043548 -1.18351e-14)
(0.0648786 0.0273247 2.19e-14)
(0.059561 0.0143553 -2.01296e-14)
(0.0529503 0.0162894 1.00662e-14)
(0.0437889 0.0505677 0)
(0.0135779 0.0533517 -9.37775e-15)
(-0.00497969 0.115396 0)
(-0.0174303 0.163493 0)
(-0.0313361 0.163457 0)
(-0.0443879 0.155225 0)
(-0.0562674 0.143443 1.15529e-15)
(-0.0655466 0.128047 -1.15745e-15)
(-0.0695227 0.109001 1.20564e-15)
(-0.0656673 0.0881475 -1.32498e-15)
(-0.054408 0.0699106 3.11078e-15)
(-0.0391786 0.058174 2.12627e-20)
(-0.0219153 0.0537443 -3.56389e-15)
(-0.00350381 0.0576982 0)
(0.0144756 0.0681353 -4.1386e-15)
(0.029479 0.0792428 9.36689e-15)
(0.0405983 0.0852572 -1.57272e-14)
(0.0495787 0.0851739 1.14817e-14)
(0.0588527 0.0804911 0)
(0.0679172 0.0709622 1.32514e-14)
(0.0732534 0.0559851 -1.27215e-14)
(0.0750403 0.0407408 1.12767e-14)
(0.0738004 0.0278868 -2.43313e-19)
(0.0711917 0.018447 -1.02023e-14)
(0.0664604 0.0180595 0)
(0.0471404 0.0426764 0)
(0.0108378 0.0495429 0)
(-0.00662042 0.142041 0)
(-0.0222973 0.192119 0)
(-0.0399125 0.189296 5.44682e-16)
(-0.0564326 0.177551 -5.22102e-16)
(-0.071186 0.16159 0)
(-0.0819645 0.141575 1.03643e-15)
(-0.0858462 0.117331 -2.18866e-15)
(-0.0812982 0.0912817 1.23818e-15)
(-0.0710999 0.0683848 0)
(-0.0581445 0.0528556 0)
(-0.0431985 0.0462469 0)
(-0.0261912 0.0503963 3.23326e-15)
(-0.00875559 0.0618691 -3.60103e-15)
(0.00670647 0.0727566 -4.12949e-15)
(0.0199569 0.077145 -4.70691e-15)
(0.0330413 0.0756342 1.06033e-14)
(0.0461394 0.0693559 1.18883e-14)
(0.0568745 0.0562882 -1.18752e-14)
(0.0651088 0.0414766 0)
(0.0710544 0.0300449 0)
(0.07437 0.0235505 9.40489e-15)
(0.0757325 0.0202804 -9.58626e-15)
(0.0694727 0.0236975 0)
(0.0448163 0.0443338 1.38175e-14)
(0.00696902 0.0507736 -1.74393e-14)
(-0.00837546 0.173356 0)
(-0.0287436 0.223839 0)
(-0.0509059 0.217552 -4.77656e-16)
(-0.0714182 0.201737 4.5934e-16)
(-0.0889947 0.181446 9.0531e-16)
(-0.100846 0.156405 -1.84557e-15)
(-0.104702 0.125946 1.98808e-15)
(-0.101016 0.0928968 -1.1565e-15)
(-0.0941509 0.0630534 0)
(-0.0845909 0.0416711 2.64273e-15)
(-0.071615 0.03201 -2.62148e-15)
(-0.055054 0.0353286 -2.77278e-15)
(-0.0367473 0.0466087 4.18341e-20)
(-0.0190571 0.0564387 7.19882e-15)
(-0.00213007 0.0595229 -1.24739e-14)
(0.015163 0.0567204 9.59539e-15)
(0.0316412 0.0473203 0)
(0.0460388 0.0339693 0)
(0.0589157 0.0235029 0)
(0.0697031 0.0185051 8.20661e-15)
(0.0769477 0.0193336 -8.27514e-15)
(0.079978 0.024156 0)
(0.0754472 0.0346335 0)
(0.0432928 0.04821 -1.06729e-14)
(0.0041637 0.0588793 8.69438e-20)
(-0.0107527 0.209544 0)
(-0.0374812 0.258958 0)
(-0.0646142 0.248492 4.17606e-16)
(-0.0894217 0.228587 -4.02223e-16)
(-0.109381 0.203978 -7.96606e-16)
(-0.122336 0.172669 1.64113e-15)
(-0.128026 0.133311 -1.79478e-15)
(-0.128076 0.0903825 1.07181e-15)
(-0.124787 0.0526063 0)
(-0.116986 0.0257956 -2.26261e-15)
(-0.103638 0.0131195 2.24402e-15)
(-0.0848635 0.0148455 2.38379e-15)
(-0.0631082 0.0245524 -2.68692e-15)
(-0.041228 0.0326194 -3.13021e-15)
(-0.0199184 0.0339687 -3.65628e-15)
(0.00140838 0.0286675 8.62877e-15)
(0.0218547 0.0166406 8.6504e-15)
(0.0412842 0.00648817 -7.52776e-15)
(0.0589113 0.0019745 0)
(0.0737915 0.00414282 -6.82878e-15)
(0.0835742 0.0130748 1.43254e-14)
(0.0888459 0.0273078 -8.11921e-15)
(0.0810274 0.0428906 0)
(0.0474765 0.0592277 8.31879e-15)
(0.00553011 0.0746329 -6.72272e-15)
(-0.014206 0.251301 2.34772e-16)
(-0.0482522 0.29852 1.95129e-16)
(-0.0809459 0.28328 -3.63849e-16)
(-0.110112 0.259426 7.01949e-16)
(-0.132752 0.229508 2.76456e-20)
(-0.148959 0.189389 -7.25294e-16)
(-0.159036 0.138613 8.06894e-16)
(-0.163217 0.0852712 9.86053e-16)
(-0.161108 0.0410996 -2.08725e-15)
(-0.152239 0.00972283 1.93826e-15)
(-0.136027 -0.00626533 -1.92607e-15)
(-0.11309 -0.00745281 0)
(-0.0863409 -0.000783048 -2.31887e-15)
(-0.0591577 0.00430832 5.42779e-15)
(-0.0327002 0.00269526 -3.20557e-15)
(-0.0064182 -0.00789791 6.99678e-15)
(0.0196244 -0.0193711 -6.51071e-15)
(0.0444358 -0.0246645 0)
(0.0668747 -0.0221763 0)
(0.0855752 -0.0126157 5.60767e-15)
(0.0981306 0.00502701 -1.6835e-19)
(0.103566 0.0292155 -7.12765e-15)
(0.0956942 0.0511353 0)
(0.0632246 0.0731899 0)
(0.0116427 0.101253 -5.52879e-15)
(-0.0192141 0.299207 0)
(-0.0610631 0.343959 0)
(-0.100087 0.323854 0)
(-0.134219 0.295435 0)
(-0.161608 0.25811 0)
(-0.183219 0.207659 0)
(-0.197565 0.145282 0)
(-0.203338 0.0834183 0)
(-0.199816 0.0335088 1.79052e-15)
(-0.188264 -0.00351717 -1.66048e-15)
(-0.167974 -0.0244249 0)
(-0.139937 -0.0299848 0)
(-0.107371 -0.0268847 0)
(-0.0737882 -0.0249295 0)
(-0.0406191 -0.0310611 0)
(-0.00734206 -0.0467418 0)
(0.0254407 -0.055851 -4.97645e-15)
(0.0564547 -0.0563848 9.09124e-15)
(0.0841836 -0.0468108 -8.90586e-15)
(0.107618 -0.029615 4.55039e-15)
(0.123318 -0.00187602 5.09416e-15)
(0.130873 0.0319134 -5.74331e-15)
(0.124117 0.0656466 -5.10496e-15)
(0.0961656 0.101532 4.83334e-15)
(0.0277798 0.149532 -4.34966e-15)
(-0.0252053 0.355262 0)
(-0.0761162 0.39683 0)
(-0.122888 0.372244 2.71668e-16)
(-0.163396 0.338119 -2.62523e-16)
(-0.196765 0.292535 0)
(-0.223538 0.230916 5.62752e-16)
(-0.239546 0.158845 -1.30352e-15)
(-0.24487 0.0878589 8.3981e-16)
(-0.23986 0.0291538 1.5358e-15)
(-0.225082 -0.0167439 -1.43891e-15)
(-0.199972 -0.0449616 -1.42826e-15)
(-0.165765 -0.0556526 3.08188e-15)
(-0.126316 -0.056399 -1.72229e-15)
(-0.0850034 -0.055905 -2.06064e-15)
(-0.0439554 -0.0687175 -2.25138e-15)
(-0.00200329 -0.0855358 4.3412e-15)
(0.0386653 -0.0926396 0)
(0.0774686 -0.0871074 3.62451e-15)
(0.112324 -0.0717113 -3.50698e-15)
(0.14262 -0.0449077 0)
(0.164204 -0.00798743 4.07737e-15)
(0.177201 0.038368 -8.79185e-15)
(0.176504 0.0875367 3.77309e-15)
(0.157713 0.139217 3.53816e-15)
(0.0627246 0.212785 -6.496e-15)
(-0.0321808 0.4188 1.47219e-16)
(-0.0939682 0.458266 1.24447e-16)
(-0.149721 0.429263 -2.32113e-16)
(-0.196904 0.389011 4.51992e-16)
(-0.236268 0.334186 -9.20497e-16)
(-0.265777 0.261821 4.99556e-16)
(-0.282152 0.178669 0)
(-0.288805 0.094952 1.53162e-15)
(-0.282548 0.0212658 -1.33953e-15)
(-0.264075 -0.0369416 -1.24316e-15)
(-0.232502 -0.0740405 1.25589e-15)
(-0.19083 -0.0910308 0)
(-0.142535 -0.0937457 1.52539e-15)
(-0.0924774 -0.0951019 -1.77106e-15)
(-0.0419109 -0.110387 3.72203e-15)
(0.00941273 -0.126983 -3.9025e-20)
(0.0599206 -0.129996 -6.06203e-15)
(0.108135 -0.119681 2.82111e-15)
(0.152684 -0.0958037 -2.84622e-15)
(0.192425 -0.0605487 1.3197e-19)
(0.223064 -0.0103159 6.69165e-15)
(0.245795 0.0517518 -3.32244e-15)
(0.252303 0.132039 0)
(0.246431 0.219162 0)
(0.109053 0.357321 0)
(-0.0393572 0.492232 0)
(-0.113986 0.530411 0)
(-0.178804 0.497311 0)
(-0.232613 0.450039 0)
(-0.276257 0.383674 0)
(-0.308892 0.296538 0)
(-0.329803 0.197271 -5.43926e-16)
(-0.338888 0.0955594 6.78504e-16)
(-0.330619 0.00234928 1.15924e-15)
(-0.306009 -0.0702968 -1.08668e-15)
(-0.266299 -0.117557 -1.08588e-15)
(-0.214634 -0.139917 1.17276e-15)
(-0.155935 -0.144452 0)
(-0.0957301 -0.145666 -1.53532e-15)
(-0.0348866 -0.16033 1.48905e-15)
(0.0282204 -0.174155 0)
(0.0900236 -0.172453 0)
(0.150183 -0.155038 2.27867e-15)
(0.20646 -0.121942 -4.47834e-15)
(0.25966 -0.0754329 2.34168e-15)
(0.304533 -0.0124149 2.56467e-15)
(0.347697 0.0627298 -5.15694e-15)
(0.371288 0.164994 2.05198e-15)
(0.401237 0.266966 0)
(0.237526 0.445176 -1.57971e-15)
(-0.0468992 0.57793 0)
(-0.135531 0.614369 0)
(-0.209411 0.574859 1.71492e-16)
(-0.270325 0.515578 -1.69824e-16)
(-0.321116 0.432606 0)
(-0.36114 0.326601 3.98651e-16)
(-0.388483 0.206968 -9.88222e-16)
(-0.398455 0.082437 5.81371e-16)
(-0.384956 -0.0312574 9.97111e-16)
(-0.351673 -0.119407 -9.35287e-16)
(-0.30083 -0.177316 0)
(-0.237147 -0.205823 1.01738e-15)
(-0.166988 -0.213349 -1.1643e-15)
(-0.0956792 -0.213702 -1.27518e-15)
(-0.0225376 -0.22364 -1.182e-15)
(0.0543213 -0.232944 2.07304e-15)
(0.129977 -0.226119 0)
(0.203464 -0.200032 1.81503e-15)
(0.27431 -0.157293 -1.79512e-15)
(0.343284 -0.096766 0)
(0.406336 -0.0158573 0)
(0.474497 0.0858065 0)
(0.505413 0.236177 0)
(0.636309 0.39853 1.40454e-15)
(0.288646 0.910406 -2.16246e-15)
(-0.0538749 0.679149 0)
(-0.156895 0.712148 0)
(-0.241449 0.664013 0)
(-0.312765 0.591246 0)
(-0.373761 0.49119 0)
(-0.424536 0.363906 0)
(-0.458932 0.218536 0)
(-0.466942 0.0643828 0)
(-0.446028 -0.0736232 0)
(-0.401613 -0.180346 0)
(-0.337995 -0.25165 0)
(-0.261418 -0.289342 0)
(-0.178457 -0.301522 0)
(-0.09401 -0.303254 0)
(-0.0059879 -0.311546 0)
(0.0859215 -0.316258 0)
(0.175569 -0.302328 0)
(0.263525 -0.270416 0)
(0.350351 -0.221046 0)
(0.43817 -0.153456 0)
(0.526582 -0.0640962 0)
(0.634518 0.0537071 0)
(0.727474 0.219657 0)
(0.992301 0.390463 0)
(1.10157 0.825789 0)
(-0.0612501 0.796059 0)
(-0.180436 0.823964 0)
(-0.27834 0.764755 0)
(-0.361786 0.676966 0)
(-0.436213 0.557138 0)
(-0.49812 0.40786 0)
(-0.537789 0.234026 0)
(-0.545259 0.0489383 0)
(-0.518154 -0.115722 0)
(-0.463961 -0.24399 0)
(-0.388348 -0.331936 0)
(-0.298159 -0.38156 0)
(-0.200875 -0.402353 0)
(-0.101787 -0.408541 0)
(0.00098248 -0.416772 0)
(0.106312 -0.418375 0)
(0.208938 -0.40243 0)
(0.310137 -0.369862 0)
(0.411634 -0.322034 0)
(0.515611 -0.258855 0)
(0.627095 -0.17938 0)
(0.753445 -0.0822534 0)
(0.907983 0.0407663 0)
(1.11786 0.162738 0)
(1.42088 0.335492 0)
(-0.0693713 0.93069 0)
(-0.206352 0.950056 0)
(-0.319392 0.876507 0)
(-0.418211 0.770351 0)
(-0.505576 0.628151 0)
(-0.577633 0.449585 0)
(-0.62406 0.240652 0)
(-0.630051 0.0204244 0)
(-0.595355 -0.174088 0)
(-0.528491 -0.32587 0)
(-0.437605 -0.430987 0)
(-0.331869 -0.492641 0)
(-0.219225 -0.519717 0)
(-0.105075 -0.528824 0)
(0.01233 -0.535803 0)
(0.130403 -0.53292 0)
(0.245032 -0.513683 0)
(0.358024 -0.479849 0)
(0.471541 -0.433189 0)
(0.588232 -0.3747 0)
(0.71246 -0.304768 0)
(0.848364 -0.225652 0)
(1.00696 -0.140696 0)
(1.18533 -0.0672969 0)
(1.4089 -0.00599714 0)
(-0.0779183 1.08152 0)
(-0.233091 1.08997 0)
(-0.362551 0.999458 0)
(-0.475568 0.873358 0)
(-0.577331 0.705653 0)
(-0.663256 0.496008 0)
(-0.717044 0.250067 0)
(-0.72285 -0.0114178 0)
(-0.678842 -0.241841 0)
(-0.597126 -0.421757 0)
(-0.489055 -0.546424 0)
(-0.365271 -0.620113 0)
(-0.235488 -0.653765 0)
(-0.105996 -0.66484 0)
(0.0256827 -0.668691 0)
(0.155409 -0.660217 0)
(0.280637 -0.637192 0)
(0.403458 -0.601997 0)
(0.52625 -0.556745 0)
(0.651596 -0.502926 0)
(0.782809 -0.441904 0)
(0.923493 -0.376605 0)
(1.07765 -0.310187 0)
(1.24647 -0.254587 0)
(1.43159 -0.210601 0)
(-0.0856695 1.24768 0)
(-0.256837 1.24366 0)
(-0.401227 1.13494 0)
(-0.529959 0.988994 0)
(-0.647815 0.796344 0)
(-0.749732 0.552406 0)
(-0.815686 0.262964 0)
(-0.822121 -0.0486104 0)
(-0.767745 -0.323076 0)
(-0.668305 -0.535817 0)
(-0.538951 -0.68094 0)
(-0.395183 -0.766902 0)
(-0.247904 -0.804592 0)
(-0.102236 -0.815044 0)
(0.0428641 -0.81304 0)
(0.182863 -0.797422 0)
(0.316977 -0.769411 0)
(0.447573 -0.731918 0)
(0.577121 -0.687077 0)
(0.708062 -0.636446 0)
(0.842917 -0.581641 0)
(0.983916 -0.52517 0)
(1.13353 -0.470434 0)
(1.29077 -0.423552 0)
(1.45294 -0.389105 0)
(-0.091293 1.4263 0)
(-0.274215 1.40984 0)
(-0.432 1.28392 0)
(-0.574272 1.12183 0)
(-0.711286 0.904182 0)
(-0.834923 0.623971 0)
(-0.915616 0.283636 0)
(-0.924991 -0.0889525 0)
(-0.858792 -0.418933 0)
(-0.738224 -0.671088 0)
(-0.585154 -0.837938 0)
(-0.418941 -0.933541 0)
(-0.252628 -0.972659 0)
(-0.0915954 -0.97865 0)
(0.0654819 -0.967614 0)
(0.214035 -0.942944 0)
(0.355085 -0.908533 0)
(0.49133 -0.867562 0)
(0.625363 -0.821925 0)
(0.75945 -0.77292 0)
(0.895634 -0.721912 0)
(1.0356 -0.67087 0)
(1.17993 -0.62226 0)
(1.32855 -0.579715 0)
(1.47866 -0.545822 0)
(-0.0936247 1.61253 0)
(-0.282231 1.58595 0)
(-0.447907 1.44645 0)
(-0.604128 1.27244 0)
(-0.761661 1.03406 0)
(-0.908681 0.715959 0)
(-1.00986 0.316029 0)
(-1.02452 -0.130503 0)
(-0.946156 -0.531108 0)
(-0.801841 -0.831398 0)
(-0.620853 -1.01948 0)
(-0.430662 -1.12173 0)
(-0.2466 -1.15737 0)
(-0.0708755 -1.15403 0)
(0.0958749 -1.13042 0)
(0.250662 -1.09461 0)
(0.396325 -1.05232 0)
(0.535997 -1.00667 0)
(0.672399 -0.959032 0)
(0.807741 -0.910201 0)
(0.943731 -0.861059 0)
(1.08151 -0.812886 0)
(1.22188 -0.767383 0)
(1.36389 -0.726431 0)
(1.50606 -0.69147 0)
(-0.0914929 1.79951 0)
(-0.277654 1.7677 0)
(-0.44627 1.61891 0)
(-0.611053 1.43988 0)
(-0.787766 1.18726 0)
(-0.965288 0.831415 0)
(-1.07737 0.365524 0)
(-1.10834 -0.167896 0)
(-1.01592 -0.658245 0)
(-0.847082 -1.01881 0)
(-0.638311 -1.2284 0)
(-0.424229 -1.33038 0)
(-0.223361 -1.35674 0)
(-0.0365187 -1.33848 0)
(0.136293 -1.29874 0)
(0.294326 -1.2498 0)
(0.441901 -1.19839 0)
(0.582634 -1.14711 0)
(0.719386 -1.09656 0)
(0.854269 -1.04684 0)
(0.988832 -0.998254 0)
(1.12415 -0.951469 0)
(1.26038 -0.907412 0)
(1.39768 -0.867131 0)
(1.53487 -0.831195 0)
(-0.0838173 1.97808 0)
(-0.258511 1.94808 0)
(-0.420269 1.7949 0)
(-0.584185 1.6181 0)
(-0.770529 1.35897 0)
(-0.958041 0.974145 0)
(-1.09446 0.445047 0)
(-1.1571 -0.188434 0)
(-1.0455 -0.793387 0)
(-0.856897 -1.23054 0)
(-0.623816 -1.46317 0)
(-0.389693 -1.55635 0)
(-0.177998 -1.56633 0)
(0.0151709 -1.52763 0)
(0.188974 -1.46876 0)
(0.346367 -1.40526 0)
(0.492704 -1.34403 0)
(0.631988 -1.28667 0)
(0.767077 -1.23273 0)
(0.89998 -1.18152 0)
(1.03207 -1.13273 0)
(1.16418 -1.08649 0)
(1.29699 -1.04321 0)
(1.4301 -1.00329 0)
(1.56329 -0.966886 0)
(-0.0698221 2.13738 0)
(-0.222583 2.11818 0)
(-0.367149 1.9641 0)
(-0.516243 1.79356 0)
(-0.695207 1.53666 0)
(-0.88997 1.1331 0)
(-1.04115 0.551861 0)
(-1.10261 -0.179491 0)
(-1.00272 -0.914479 0)
(-0.804067 -1.45198 0)
(-0.561886 -1.71623 0)
(-0.31847 -1.79133 0)
(-0.103833 -1.77824 0)
(0.0867421 -1.71506 0)
(0.255129 -1.63545 0)
(0.407273 -1.55714 0)
(0.548983 -1.48634 0)
(0.684277 -1.42315 0)
(0.81579 -1.3659 0)
(0.94526 -1.31308 0)
(1.07388 -1.26382 0)
(1.2025 -1.21785 0)
(1.33136 -1.17514 0)
(1.46097 -1.13578 0)
(1.59109 -1.09961 0)
(-0.0481938 2.26475 0)
(-0.170163 2.26668 0)
(-0.286658 2.11278 0)
(-0.403708 1.95002 0)
(-0.55498 1.69908 0)
(-0.735137 1.29095 0)
(-0.88914 0.6829 0)
(-0.937869 -0.118511 0)
(-0.851015 -0.981396 0)
(-0.663106 -1.64726 0)
(-0.435465 -1.9694 0)
(-0.202241 -2.02052 0)
(0.0010509 -1.9811 0)
(0.178364 -1.89258 0)
(0.334347 -1.79295 0)
(0.476416 -1.70135 0)
(0.610193 -1.62241 0)
(0.739146 -1.55444 0)
(0.865344 -1.49452 0)
(0.99013 -1.44042 0)
(1.11442 -1.39087 0)
(1.23883 -1.34526 0)
(1.36402 -1.30334 0)
(1.48995 -1.26489 0)
(1.61692 -1.22967 0)
(-0.0227087 2.34848 0)
(-0.103045 2.38221 0)
(-0.182666 2.22772 0)
(-0.253424 2.06709 0)
(-0.355077 1.81896 0)
(-0.500923 1.41691 0)
(-0.638448 0.827953 0)
(-0.670659 0.0261941 0)
(-0.578819 -0.950873 0)
(-0.422726 -1.78171 0)
(-0.238201 -2.19415 0)
(-0.0417667 -2.22517 0)
(0.133596 -2.16163 0)
(0.286746 -2.05111 0)
(0.423828 -1.93543 0)
(0.551726 -1.8341 0)
(0.674903 -1.74973 0)
(0.795646 -1.67878 0)
(0.915158 -1.61731 0)
(1.03422 -1.56264 0)
(1.15345 -1.51328 0)
(1.2734 -1.46843 0)
(1.39427 -1.42768 0)
(1.51669 -1.3907 0)
(1.64077 -1.35712 0)
(0.00860655 2.37854 0)
(-0.0256153 2.45782 0)
(-0.0653877 2.29723 0)
(-0.0827963 2.13111 0)
(-0.118773 1.87498 0)
(-0.214708 1.47717 0)
(-0.330951 0.93874 0)
(-0.324113 0.288288 0)
(-0.231239 -0.827015 0)
(-0.11326 -1.85085 0)
(0.0102375 -2.36485 0)
(0.148744 -2.38658 0)
(0.282804 -2.30795 0)
(0.40452 -2.18346 0)
(0.518584 -2.05861 0)
(0.629951 -1.95284 0)
(0.741013 -1.86662 0)
(0.852417 -1.79494 0)
(0.964331 -1.73334 0)
(1.07697 -1.67905 0)
(1.19063 -1.63057 0)
(1.30556 -1.58706 0)
(1.42227 -1.54804 0)
(1.54079 -1.51309 0)
(1.66155 -1.48182 0)
(0.0419764 2.35368 0)
(0.0561911 2.47637 0)
(0.0548936 2.31754 0)
(0.0827977 2.13612 0)
(0.112217 1.85853 0)
(0.0700269 1.43835 0)
(-0.0108099 0.916558 0)
(0.030652 0.280383 0)
(0.100219 -0.744944 0)
(0.189917 -1.86332 0)
(0.263072 -2.45144 0)
(0.344334 -2.49405 0)
(0.433199 -2.41466 0)
(0.521992 -2.2865 0)
(0.612572 -2.16096 0)
(0.707365 -2.05678 0)
(0.806174 -1.97248 0)
(0.907914 -1.90236 0)
(1.01184 -1.8421 0)
(1.11768 -1.78923 0)
(1.22543 -1.74242 0)
(1.33527 -1.70092 0)
(1.44723 -1.66419 0)
(1.56185 -1.63186 0)
(1.67931 -1.6035 0)
(0.073671 2.27323 0)
(0.13703 2.44737 0)
(0.170045 2.29257 0)
(0.22619 2.08922 0)
(0.304397 1.78791 0)
(0.312119 1.33508 0)
(0.26848 0.825748 0)
(0.339443 0.158921 0)
(0.380457 -0.755515 0)
(0.437394 -1.86458 0)
(0.480074 -2.50849 0)
(0.519234 -2.55534 0)
(0.569749 -2.48435 0)
(0.629712 -2.3623 0)
(0.700247 -2.24426 0)
(0.780644 -2.14706 0)
(0.868232 -2.06779 0)
(0.960677 -2.0011 0)
(1.05667 -1.94347 0)
(1.15565 -1.89301 0)
(1.2574 -1.84867 0)
(1.36182 -1.8098 0)
(1.4692 -1.77596 0)
(1.57948 -1.74675 0)
(1.69307 -1.72185 0)
(0.101789 2.14094 0)
(0.212746 2.37075 0)
(0.276502 2.23235 0)
(0.344962 2.01054 0)
(0.450048 1.69418 0)
(0.499896 1.23165 0)
(0.500385 0.708008 0)
(0.57477 0.0864843 0)
(0.572982 -0.742302 0)
(0.614752 -1.87534 0)
(0.642916 -2.54005 0)
(0.655433 -2.58418 0)
(0.680776 -2.52628 0)
(0.721547 -2.41748 0)
(0.778188 -2.31296 0)
(0.847548 -2.22609 0)
(0.925565 -2.15366 0)
(1.00952 -2.09163 0)
(1.09799 -2.03764 0)
(1.19027 -1.99042 0)
(1.28603 -1.94923 0)
(1.38513 -1.91358 0)
(1.48741 -1.8831 0)
(1.59329 -1.85748 0)
(1.70294 -1.83646 0)
(0.125173 1.96336 0)
(0.280318 2.25571 0)
(0.373544 2.14875 0)
(0.446678 1.91911 0)
(0.555342 1.59967 0)
(0.629837 1.15117 0)
(0.676606 0.626885 0)
(0.716587 0.0850956 0)
(0.673367 -0.706879 0)
(0.725675 -1.90689 0)
(0.747857 -2.55369 0)
(0.748634 -2.60076 0)
(0.764001 -2.55314 0)
(0.796441 -2.46089 0)
(0.845464 -2.37229 0)
(0.907011 -2.29647 0)
(0.977169 -2.23138 0)
(1.05363 -2.17466 0)
(1.13516 -2.12498 0)
(1.22108 -2.08163 0)
(1.31098 -2.04413 0)
(1.40455 -2.01215 0)
(1.50194 -1.98543 0)
(1.603 -1.96376 0)
(1.70808 -1.94694 0)
(0.144798 1.7463 0)
(0.338962 2.11311 0)
(0.459543 2.05265 0)
(0.536339 1.82865 0)
(0.630588 1.51493 0)
(0.705651 1.08753 0)
(0.780349 0.592479 0)
(0.768636 0.150724 0)
(0.710465 -0.673849 0)
(0.781316 -1.96877 0)
(0.804652 -2.55952 0)
(0.808425 -2.61407 0)
(0.825362 -2.57589 0)
(0.857376 -2.50055 0)
(0.902938 -2.42618 0)
(0.958922 -2.36024 0)
(1.02268 -2.30217 0)
(1.09263 -2.25096 0)
(1.16786 -2.20598 0)
(1.24776 -2.16688 0)
(1.33191 -2.13342 0)
(1.42013 -2.10543 0)
(1.51214 -2.08275 0)
(1.60831 -2.06527 0)
(1.70874 -2.05286 0)
(0.161646 1.49198 0)
(0.387084 1.95006 0)
(0.530288 1.94999 0)
(0.612038 1.74815 0)
(0.683385 1.44708 0)
(0.746674 1.04641 0)
(0.794646 0.597445 0)
(0.7541 0.273706 0)
(0.708941 -0.671409 0)
(0.805794 -2.05124 0)
(0.831169 -2.56804 0)
(0.848172 -2.63302 0)
(0.873884 -2.60274 0)
(0.908274 -2.54061 0)
(0.952024 -2.47684 0)
(1.00381 -2.41884 0)
(1.06228 -2.36709 0)
(1.12655 -2.32125 0)
(1.19599 -2.28106 0)
(1.27017 -2.24638 0)
(1.34873 -2.21716 0)
(1.43139 -2.19334 0)
(1.51825 -2.17487 0)
(1.60912 -2.16171 0)
(1.70429 -2.15382 0)
(0.173599 1.19465 0)
(0.422361 1.77634 0)
(0.58463 1.84737 0)
(0.670779 1.6824 0)
(0.722166 1.40639 0)
(0.768368 1.03817 0)
(0.787924 0.657051 0)
(0.716548 0.41441 0)
(0.691575 -0.715144 0)
(0.803599 -2.14133 0)
(0.849748 -2.58906 0)
(0.881729 -2.66636 0)
(0.915256 -2.6381 0)
(0.952093 -2.58207 0)
(0.994406 -2.52504 0)
(1.04268 -2.47311 0)
(1.09656 -2.42688 0)
(1.15567 -2.38607 0)
(1.21968 -2.35054 0)
(1.28832 -2.32028 0)
(1.36133 -2.29536 0)
(1.43859 -2.27578 0)
(1.51981 -2.26159 0)
(1.60532 -2.25279 0)
(1.69519 -2.24942 0)
(0.170602 0.850279 0)
(0.437493 1.57357 0)
(0.620094 1.73788 0)
(0.714864 1.63321 0)
(0.752995 1.39469 0)
(0.78014 1.06661 0)
(0.764027 0.762031 0)
(0.655302 0.607087 0)
(0.676648 -0.809256 0)
(0.805398 -2.23388 0)
(0.872729 -2.63795 0)
(0.916061 -2.70844 0)
(0.954106 -2.67762 0)
(0.991502 -2.62374 0)
(1.03201 -2.57069 0)
(1.07685 -2.52341 0)
(1.12631 -2.4819 0)
(1.18042 -2.44568 0)
(1.23912 -2.41458 0)
(1.30231 -2.38865 0)
(1.36982 -2.36799 0)
(1.44143 -2.35267 0)
(1.51725 -2.34273 0)
(1.59705 -2.33825 0)
(1.68104 -2.33933 0)
(0.148182 0.48463 0)
(0.429231 1.32564 0)
(0.637245 1.61505 0)
(0.744881 1.58551 0)
(0.776863 1.40474 0)
(0.791988 1.11823 0)
(0.733088 0.888669 0)
(0.618357 0.846858 0)
(0.685273 -0.943173 0)
(0.836758 -2.32907 0)
(0.910213 -2.69612 0)
(0.956118 -2.7535 0)
(0.993723 -2.71795 0)
(1.02956 -2.66389 0)
(1.06694 -2.61326 0)
(1.10762 -2.56957 0)
(1.1523 -2.53208 0)
(1.20125 -2.50003 0)
(1.25458 -2.47315 0)
(1.31228 -2.45146 0)
(1.37423 -2.43502 0)
(1.44034 -2.42389 0)
(1.51029 -2.41813 0)
(1.58435 -2.41786 0)
(1.66253 -2.42323 0)
(0.112785 0.133624 0)
(0.402614 1.02416 0)
(0.635316 1.462 0)
(0.761678 1.53301 0)
(0.796555 1.41436 0)
(0.800576 1.17641 0)
(0.71832 1.04433 0)
(0.620846 1.08566 0)
(0.736901 -1.08719 0)
(0.894807 -2.42814 0)
(0.963435 -2.75425 0)
(1.00455 -2.79681 0)
(1.03772 -2.75552 0)
(1.06839 -2.70039 0)
(1.10049 -2.65141 0)
(1.13579 -2.61076 0)
(1.17499 -2.57696 0)
(1.21843 -2.54889 0)
(1.26622 -2.52615 0)
(1.31838 -2.50864 0)
(1.37477 -2.49636 0)
(1.43512 -2.48935 0)
(1.4995 -2.48766 0)
(1.56758 -2.49145 0)
(1.63949 -2.50092 0)
(0.0613596 -0.168734 0)
(0.367094 0.681214 0)
(0.625125 1.27181 0)
(0.765525 1.4485 0)
(0.815795 1.40396 0)
(0.809844 1.20009 0)
(0.682618 1.16034 0)
(0.603896 1.14886 0)
(0.831348 -1.26393 0)
(0.981643 -2.51828 0)
(1.03515 -2.80371 0)
(1.06399 -2.83222 0)
(1.08638 -2.78581 0)
(1.10836 -2.73013 0)
(1.13288 -2.68321 0)
(1.16143 -2.64588 0)
(1.19444 -2.61593 0)
(1.23202 -2.59197 0)
(1.27414 -2.57343 0)
(1.32071 -2.56012 0)
(1.3715 -2.55198 0)
(1.42632 -2.54899 0)
(1.48474 -2.55125 0)
(1.54692 -2.55891 0)
(1.61279 -2.57222 0)
(0.0159206 -0.244284 0)
(0.329919 0.336483 0)
(0.608473 1.05453 0)
(0.761454 1.3412 0)
(0.838847 1.3468 0)
(0.829368 1.20957 0)
(0.670031 1.18904 0)
(0.66885 0.912399 0)
(0.957264 -1.46443 0)
(1.09064 -2.59671 0)
(1.12116 -2.83778 0)
(1.13076 -2.85287 0)
(1.13806 -2.80411 0)
(1.14787 -2.75018 0)
(1.16302 -2.707 0)
(1.18395 -2.67405 0)
(1.21034 -2.64859 0)
(1.24187 -2.6291 0)
(1.27829 -2.61496 0)
(1.31932 -2.60592 0)
(1.36462 -2.60189 0)
(1.41376 -2.60286 0)
(1.46666 -2.60891 0)
(1.52287 -2.62023 0)
(1.58239 -2.63715 0)
(-0.0158313 -0.316276 0)
(0.260692 -0.0454988 0)
(0.575899 0.790503 0)
(0.743368 1.20492 0)
(0.844381 1.24259 0)
(0.83735 1.18432 0)