/*--------------------------------*- C++ -*----------------------------------*\
  =========                 |
  \\      /  F ield         | OpenFOAM: The Open Source CFD Toolbox
   \\    /   O peration     | Website:  https://openfoam.org
    \\  /    A nd           | Version:  13
     \\/     M anipulation  |
\*---------------------------------------------------------------------------*/
FoamFile
{
    format      ascii;
    class       volVectorField;
    location    "4";
    object      U;
}
// * * * * * * * * * * * * * * * * * * * * * * * * * * * * * * * * * * * * * //

dimensions      [0 1 -1 0 0 0 0];

internalField   nonuniform List<vector> 
6440
(
(2.49969e-08 -3.76544e-08 0)
(6.46643e-08 -5.00462e-08 0)
(1.3577e-07 -4.50922e-08 -1.54936e-20)
(2.05853e-07 -5.82002e-08 1.54467e-20)
(2.98094e-07 -8.47291e-08 0)
(4.06418e-07 -1.15602e-07 -3.06097e-20)
(5.27072e-07 -1.48267e-07 3.0427e-20)
(6.50652e-07 -1.80306e-07 0)
(7.61381e-07 -2.068e-07 5.99466e-20)
(8.51729e-07 -2.23661e-07 -5.94225e-20)
(9.18535e-07 -2.30777e-07 -5.88456e-20)
(9.54077e-07 -2.27332e-07 6.42277e-25)
(9.53925e-07 -2.11499e-07 -9.91903e-25)
(9.17765e-07 -1.81755e-07 5.68763e-20)
(8.48708e-07 -1.37866e-07 5.61527e-20)
(7.52125e-07 -8.14421e-08 -5.53901e-20)
(6.34775e-07 -1.4828e-08 0)
(5.0455e-07 5.87829e-08 1.0761e-19)
(3.68644e-07 1.37054e-07 1.85567e-23)
(2.32828e-07 2.14846e-07 -1.04239e-19)
(9.91385e-08 2.80746e-07 1.02533e-19)
(-2.70538e-08 3.12063e-07 -2.01546e-19)
(-1.94753e-07 2.96132e-07 9.89919e-20)
(-2.47633e-07 1.03532e-07 -9.72287e-20)
(-8.02148e-08 -1.11926e-07 -7.5695e-24)
(2.41356e-08 -1.28756e-07 0)
(9.59468e-08 -2.28453e-07 0)
(2.26272e-07 -2.89e-07 -1.64069e-20)
(3.94746e-07 -3.83367e-07 1.63578e-20)
(6.14492e-07 -4.92502e-07 0)
(8.71985e-07 -5.91395e-07 -3.24185e-20)
(1.15509e-06 -6.68339e-07 3.22273e-20)
(1.44861e-06 -7.17132e-07 0)
(1.73341e-06 -7.33692e-07 0)
(1.98883e-06 -7.13564e-07 0)
(2.19159e-06 -6.55113e-07 0)
(2.32524e-06 -5.59063e-07 -6.17012e-20)
(2.3859e-06 -4.36918e-07 6.10125e-20)
(2.3726e-06 -2.96426e-07 0)
(2.28702e-06 -1.46142e-07 5.9525e-20)
(2.13672e-06 5.2529e-09 -5.87258e-20)
(1.93292e-06 1.51538e-07 0)
(1.69219e-06 2.84322e-07 0)
(1.43102e-06 3.92248e-07 1.12407e-19)
(1.15327e-06 4.72196e-07 -1.10608e-19)
(8.6033e-07 5.21586e-07 1.08839e-19)
(5.80496e-07 5.06022e-07 -1.06978e-19)
(2.34846e-07 4.0657e-07 -1.05167e-19)
(-5.71135e-08 8.16895e-08 -3.58294e-23)
(2.03285e-08 -3.2425e-07 7.59698e-20)
(2.43068e-08 -2.67472e-07 0)
(1.534e-07 -5.44528e-07 0)
(3.73013e-07 -7.5367e-07 -1.64993e-20)
(6.68789e-07 -9.87559e-07 1.64527e-20)
(1.0372e-06 -1.21089e-06 0)
(1.45687e-06 -1.38485e-06 -3.26221e-20)
(1.9079e-06 -1.48781e-06 6.48781e-20)
(2.36477e-06 -1.50776e-06 -3.22284e-20)
(2.80076e-06 -1.44192e-06 6.39729e-20)
(3.19156e-06 -1.29618e-06 -6.3451e-20)
(3.51443e-06 -1.08048e-06 -6.28709e-20)
(3.73469e-06 -8.02412e-07 2.95219e-24)
(3.8353e-06 -4.81417e-07 6.15957e-20)
(3.82105e-06 -1.44119e-07 6.0901e-20)
(3.6965e-06 1.88514e-07 5.53482e-24)
(3.47975e-06 4.9765e-07 -5.9408e-20)
(3.18887e-06 7.60789e-07 0)
(2.83006e-06 9.64256e-07 1.1565e-19)
(2.41413e-06 1.10134e-06 -1.13957e-19)
(1.96396e-06 1.16837e-06 0)
(1.50078e-06 1.16961e-06 1.1057e-19)
(1.05845e-06 1.0876e-06 -2.17587e-19)
(5.78084e-07 9.04448e-07 1.06992e-19)
(1.59382e-07 4.92464e-07 -1.05238e-19)
(1.38627e-07 -1.30492e-07 7.8348e-20)
(2.86101e-08 -4.67047e-07 0)
(2.12877e-07 -1.00491e-06 0)
(5.19244e-07 -1.43521e-06 -1.65231e-20)
(9.37204e-07 -1.86024e-06 1.64792e-20)
(1.45217e-06 -2.22619e-06 0)
(2.03518e-06 -2.48015e-06 -3.26887e-20)
(2.65901e-06 -2.5915e-06 6.50307e-20)
(3.29131e-06 -2.54588e-06 -3.23158e-20)
(3.89637e-06 -2.3442e-06 0)
(4.44171e-06 -2.00287e-06 0)
(4.89692e-06 -1.54907e-06 0)
(5.22442e-06 -1.01225e-06 -6.25356e-20)
(5.39855e-06 -4.22924e-07 6.19115e-20)
(5.42061e-06 1.72236e-07 6.12501e-20)
(5.30993e-06 7.34088e-07 -6.05525e-20)
(5.06915e-06 1.22637e-06 0)
(4.68995e-06 1.62166e-06 1.18181e-19)
(4.19115e-06 1.89878e-06 -1.16608e-19)
(3.60686e-06 2.04973e-06 0)
(2.97102e-06 2.08061e-06 0)
(2.31133e-06 2.00813e-06 0)
(1.66556e-06 1.83086e-06 0)
(1.01503e-06 1.53135e-06 0)
(4.24323e-07 1.0025e-06 -1.06687e-19)
(2.60084e-07 1.02096e-07 -1.73151e-23)
(3.29165e-08 -7.21157e-07 0)
(2.63507e-07 -1.59028e-06 0)
(6.45392e-07 -2.30623e-06 -1.64899e-20)
(1.17391e-06 -2.97122e-06 1.64485e-20)
(1.82695e-06 -3.50955e-06 0)
(2.57039e-06 -3.8529e-06 -3.2641e-20)
(3.37083e-06 -3.9613e-06 6.49546e-20)
(4.18901e-06 -3.82e-06 -3.22887e-20)
(4.98274e-06 -3.43904e-06 0)
(5.71002e-06 -2.84859e-06 0)
(6.3336e-06 -2.09563e-06 0)
(6.81454e-06 -1.23205e-06 -6.25901e-20)
(7.11501e-06 -3.0888e-07 6.19996e-20)
(7.23665e-06 5.99927e-07 6.13709e-20)
(7.17816e-06 1.43888e-06 -6.07093e-20)
(6.91598e-06 2.15253e-06 0)
(6.45772e-06 2.69946e-06 1.18642e-19)
(5.83208e-06 3.05741e-06 -1.17144e-19)
(5.07549e-06 3.22237e-06 0)
(4.23228e-06 3.2079e-06 0)
(3.34279e-06 3.04234e-06 0)
(2.45515e-06 2.7399e-06 0)
(1.58242e-06 2.28768e-06 0)
(7.55672e-07 1.59532e-06 -1.07703e-19)
(3.99827e-07 3.65941e-07 8.21104e-20)
(3.60821e-08 -1.01768e-06 0)
(3.06734e-07 -2.2764e-06 0)
(7.56366e-07 -3.33415e-06 -1.64094e-20)
(1.38738e-06 -4.28483e-06 1.63706e-20)
(2.17259e-06 -5.02668e-06 0)
(3.07482e-06 -5.47291e-06 -3.24985e-20)
(4.05583e-06 -5.57347e-06 6.46885e-20)
(5.07037e-06 -5.31493e-06 -3.21666e-20)
(6.06987e-06 -4.71882e-06 6.39163e-20)
(7.0048e-06 -3.83352e-06 -6.34777e-20)
(7.82955e-06 -2.72762e-06 0)
(8.50206e-06 -1.48054e-06 -6.24522e-20)
(8.96864e-06 -1.68215e-07 4.10709e-24)
(9.21581e-06 1.11156e-06 1.22596e-19)
(9.22758e-06 2.27039e-06 -6.06722e-20)
(8.96993e-06 3.24308e-06 0)
(8.45416e-06 3.97422e-06 1.1871e-19)
(7.70811e-06 4.43293e-06 3.55721e-23)
(6.77371e-06 4.61693e-06 4.56831e-23)
(5.70702e-06 4.54875e-06 -1.14393e-19)
(4.56378e-06 4.26954e-06 0)
(3.40559e-06 3.80872e-06 0)
(2.26818e-06 3.16014e-06 0)
(1.15374e-06 2.25338e-06 -1.08336e-19)
(5.59967e-07 6.53343e-07 8.35388e-20)
(3.90074e-08 -1.34933e-06 0)
(3.47383e-07 -3.04914e-06 0)
(8.61134e-07 -4.49942e-06 -1.62904e-20)
(1.59029e-06 -5.77857e-06 1.6254e-20)
(2.50405e-06 -6.75442e-06 3.24032e-20)
(3.56344e-06 -7.3181e-06 -6.45618e-20)
(4.72632e-06 -7.40865e-06 6.42661e-20)
(5.94235e-06 -7.01582e-06 -3.1966e-20)
(7.15741e-06 -6.17529e-06 0)
(8.31438e-06 -4.95611e-06 6.31126e-20)
(9.35851e-06 -3.45136e-06 -6.26619e-20)
(1.02405e-05 -1.77029e-06 -6.21538e-20)
(1.08943e-05 -2.08511e-08 6.16297e-20)
(1.12841e-05 1.68213e-06 6.10617e-20)
(1.13848e-05 3.21513e-06 -6.04718e-20)
(1.11583e-05 4.4913e-06 0)
(1.0605e-05 5.43872e-06 1.18447e-19)
(9.75041e-06 6.0169e-06 -1.17103e-19)
(8.6411e-06 6.22395e-06 0)
(7.34415e-06 6.09172e-06 1.14415e-19)
(5.93233e-06 5.67571e-06 -1.12944e-19)
(4.48269e-06 5.02232e-06 0)
(3.0503e-06 4.13363e-06 0)
(1.61469e-06 2.96048e-06 -1.08634e-19)
(7.4093e-07 9.55542e-07 -2.54391e-23)
(4.21669e-08 -1.71254e-06 0)
(3.87183e-07 -3.90112e-06 0)
(9.627e-07 -5.78988e-06 -1.61402e-20)
(1.78562e-06 -7.43627e-06 1.61061e-20)
(2.82257e-06 -8.67364e-06 0)
(4.0337e-06 -9.36739e-06 -3.19947e-20)
(5.37388e-06 -9.44544e-06 3.18616e-20)
(6.78843e-06 -8.90247e-06 0)
(8.21787e-06 -7.7906e-06 0)
(9.59858e-06 -6.20231e-06 0)
(1.08653e-05 -4.25642e-06 0)
(1.19577e-05 -2.09384e-06 -6.17227e-20)
(1.28089e-05 1.40626e-07 6.12304e-20)
(1.33625e-05 2.31879e-06 0)
(1.35717e-05 4.27737e-06 0)
(1.33951e-05 5.89631e-06 0)
(1.28234e-05 7.08614e-06 0)
(1.1877e-05 7.79553e-06 0)
(1.06043e-05 8.02228e-06 1.15393e-19)
(9.08132e-06 7.80888e-06 -1.14037e-19)
(7.39797e-06 7.22846e-06 0)
(5.64785e-06 6.34854e-06 0)
(3.90451e-06 5.18298e-06 0)
(2.12845e-06 3.7019e-06 -1.08641e-19)
(9.40249e-07 1.26749e-06 8.56054e-20)
(4.57939e-08 -2.10453e-06 0)
(4.24861e-07 -4.82424e-06 0)
(1.05669e-06 -7.19064e-06 -1.59652e-20)
(1.96416e-06 -9.23693e-06 1.59333e-20)
(3.11253e-06 -1.07581e-05 0)
(4.46235e-06 -1.15907e-05 -3.16605e-20)
(5.96658e-06 -1.16516e-05 6.30648e-20)
(7.56715e-06 -1.0942e-05 -3.1385e-20)
(9.19943e-06 -9.53155e-06 0)
(1.07941e-05 -7.53744e-06 0)
(1.22755e-05 -5.10626e-06 6.16259e-20)
(1.35735e-05 -2.40881e-06 -1.2238e-19)
(1.4639e-05 3.64319e-07 6.07216e-20)
(1.53785e-05 3.04947e-06 6.02076e-20)
(1.57065e-05 5.46535e-06 -5.96859e-20)
(1.5598e-05 7.45196e-06 0)
(1.50341e-05 8.89663e-06 -1.17126e-19)
(1.40233e-05 9.73709e-06 1.15931e-19)
(1.26115e-05 9.97127e-06 0)
(1.08807e-05 9.65461e-06 0)
(8.93599e-06 8.88269e-06 0)
(6.88859e-06 7.74862e-06 1.11012e-19)
(4.82782e-06 6.28314e-06 -1.0963e-19)
(2.69712e-06 4.46929e-06 -1.08397e-19)
(1.16059e-06 1.59154e-06 8.62887e-20)
(4.96432e-08 -2.5205e-06 0)
(4.57158e-07 -5.80536e-06 0)
(1.13492e-06 -8.67963e-06 0)
(2.11124e-06 -1.11508e-05 0)
(3.35187e-06 -1.29721e-05 0)
(4.81962e-06 -1.39488e-05 0)
(6.46752e-06 -1.39871e-05 0)
(8.23585e-06 -1.30961e-05 0)
(1.00563e-05 -1.13638e-05 -6.17166e-20)
(1.18544e-05 -8.93219e-06 6.13793e-20)
(1.35497e-05 -5.9793e-06 0)
(1.5063e-05 -2.70836e-06 0)
(1.63285e-05 6.52842e-07 0)
(1.72449e-05 3.87737e-06 0)
(1.7722e-05 6.76624e-06 0)
(1.772e-05 9.12983e-06 0)
(1.72048e-05 1.08297e-05 0)
(1.61729e-05 1.17918e-05 -1.15049e-19)
(1.46631e-05 1.20159e-05 1.13882e-19)
(1.27586e-05 1.15748e-05 0)
(1.05754e-05 1.05925e-05 -1.11584e-19)
(8.24035e-06 9.19096e-06 1.10307e-19)
(5.85368e-06 7.42105e-06 0)
(3.34547e-06 5.27068e-06 0)
(1.4127e-06 1.94341e-06 0)
(5.33287e-08 -2.95343e-06 0)
(4.81007e-07 -6.82638e-06 0)
(1.18992e-06 -1.02281e-05 0)
(2.21388e-06 -1.31407e-05 0)
(3.52185e-06 -1.52726e-05 0)
(5.08149e-06 -1.63966e-05 0)
(6.84855e-06 -1.64091e-05 3.07644e-20)
(8.764e-06 -1.53277e-05 -3.06391e-20)
(1.07578e-05 -1.32591e-05 -6.09551e-20)
(1.27515e-05 -1.03708e-05 6.06401e-20)
(1.46601e-05 -6.87354e-06 6.02538e-20)
(1.63955e-05 -3.00969e-06 -5.98784e-20)
(1.78716e-05 9.54631e-07 0)
(1.89878e-05 4.7458e-06 5.89879e-20)
(1.96536e-05 8.12385e-06 -1.1949e-23)
(1.98066e-05 1.08689e-05 -5.80327e-20)
(1.93957e-05 1.28202e-05 0)
(1.84021e-05 1.38939e-05 -1.13984e-19)
(1.68509e-05 1.40962e-05 1.12886e-19)
(1.48196e-05 1.35219e-05 0)
(1.24254e-05 1.23302e-05 0)
(9.80517e-06 1.06731e-05 1.09594e-19)
(7.07152e-06 8.61359e-06 -1.08358e-19)
(4.14259e-06 6.14887e-06 0)
(1.72378e-06 2.35661e-06 0)
(5.64716e-08 -3.39487e-06 0)
(4.9487e-07 -7.86634e-06 0)
(1.21859e-06 -1.18039e-05 0)
(2.2675e-06 -1.51661e-05 0)
(3.61709e-06 -1.7615e-05 0)
(5.24323e-06 -1.889e-05 0)
(7.10776e-06 -1.88791e-05 0)
(9.15537e-06 -1.76081e-05 0)
(1.13167e-05 -1.52016e-05 0)
(1.35109e-05 -1.18526e-05 0)
(1.56474e-05 -7.80503e-06 -5.9482e-20)
(1.76296e-05 -3.34171e-06 5.91312e-20)
(1.93569e-05 1.23003e-06 0)
(2.07255e-05 5.59376e-06 0)
(2.16391e-05 9.46415e-06 0)
(2.20145e-05 1.25914e-05 0)
(2.17829e-05 1.47941e-05 0)
(2.09049e-05 1.59821e-05 0)
(1.93842e-05 1.61714e-05 0)
(1.72819e-05 1.54832e-05 0)
(1.47023e-05 1.41163e-05 0)
(1.17828e-05 1.22553e-05 -1.08647e-19)
(8.67343e-06 9.93871e-06 1.0748e-19)
(5.23164e-06 7.17098e-06 0)
(2.1399e-06 2.88576e-06 0)
(5.88058e-08 -3.83669e-06 0)
(4.99783e-07 -8.90623e-06 0)
(1.22473e-06 -1.33789e-05 0)
(2.28018e-06 -1.71928e-05 0)
(3.65171e-06 -1.99635e-05 3.0099e-20)
(5.32739e-06 -2.13981e-05 -3.00194e-20)
(7.27941e-06 -2.13764e-05 0)
(9.4598e-06 -1.99315e-05 0)
(1.18028e-05 -1.72046e-05 -5.92988e-20)
(1.42267e-05 -1.34129e-05 1.18023e-19)
(1.66364e-05 -8.83316e-06 -2.531e-23)
(1.89264e-05 -3.78613e-06 -5.83441e-20)
(2.09809e-05 1.3816e-06 0)
(2.26882e-05 6.30468e-06 0)
(2.39435e-05 1.06631e-05 5.71154e-20)
(2.46427e-05 1.41792e-05 -5.66895e-20)
(2.46944e-05 1.66537e-05 -1.12434e-19)
(2.40326e-05 1.79906e-05 9.19213e-24)
(2.26313e-05 1.82175e-05 1.10522e-19)
(2.05219e-05 1.7483e-05 1.0955e-19)
(1.77847e-05 1.60223e-05 -1.08511e-19)
(1.45376e-05 1.40539e-05 1.07574e-19)
(1.09449e-05 1.15756e-05 -1.06474e-19)
(6.81419e-06 8.50268e-06 0)
(2.76352e-06 3.61281e-06 0)
(6.02796e-08 -4.27299e-06 0)
(4.99755e-07 -9.93376e-06 0)
(1.21989e-06 -1.49355e-05 0)
(2.27426e-06 -1.92012e-05 0)
(3.66198e-06 -2.23012e-05 0)
(5.38757e-06 -2.39123e-05 0)
(7.43821e-06 -2.39065e-05 0)
(9.77746e-06 -2.23228e-05 0)
(1.23465e-05 -1.93163e-05 -5.84286e-20)
(1.50658e-05 -1.51274e-05 5.8172e-20)
(1.78371e-05 -1.00635e-05 0)
(2.05462e-05 -4.47829e-06 0)
(2.30504e-05 1.25162e-06 0)
(2.52321e-05 6.70282e-06 0)
(2.69786e-05 1.15433e-05 0)
(2.81515e-05 1.54741e-05 0)
(2.8631e-05 1.82782e-05 0)
(2.83192e-05 1.98547e-05 -1.10113e-19)
(2.71525e-05 2.02396e-05 1.09202e-19)
(2.51186e-05 1.9603e-05 0)
(2.22555e-05 1.82089e-05 0)
(1.86331e-05 1.62902e-05 0)
(1.43801e-05 1.37877e-05 0)
(9.24112e-06 1.04411e-05 0)
(3.732e-06 4.7357e-06 0)
(6.13473e-08 -4.70206e-06 0)
(5.02342e-07 -1.09479e-05 0)
(1.22402e-06 -1.64736e-05 0)
(2.28691e-06 -2.11942e-05 0)
(3.70655e-06 -2.46386e-05 0)
(5.50809e-06 -2.64561e-05 0)
(7.69858e-06 -2.65114e-05 0)
(1.02578e-05 -2.4847e-05 0)
(1.31374e-05 -2.16301e-05 0)
(1.62625e-05 -1.71217e-05 0)
(1.95359e-05 -1.16579e-05 5.69817e-20)
(2.28357e-05 -5.62504e-06 -5.6695e-20)
(2.59716e-05 5.82786e-07 0)
(2.88309e-05 6.54095e-06 0)
(3.12975e-05 1.18623e-05 5.55778e-20)
(3.31664e-05 1.62556e-05 -5.52027e-20)
(3.42833e-05 1.94989e-05 -1.09528e-19)
(3.4515e-05 2.14872e-05 1.08705e-19)
(3.37504e-05 2.22543e-05 0)
(3.19173e-05 2.19739e-05 0)
(2.89795e-05 2.09212e-05 0)
(2.49161e-05 1.93197e-05 1.0513e-19)
(1.97641e-05 1.70028e-05 -2.08402e-19)
(1.3142e-05 1.34342e-05 1.03247e-19)
(5.32048e-06 6.58417e-06 0)
(6.28301e-08 -5.12795e-06 0)
(5.17533e-07 -1.19623e-05 0)
(1.26321e-06 -1.8015e-05 0)
(2.36629e-06 -2.32028e-05 0)
(3.86068e-06 -2.70205e-05 0)
(5.79611e-06 -2.90934e-05 0)
(8.20403e-06 -2.92786e-05 -2.85403e-20)
(1.10849e-05 -2.76201e-05 2.84512e-20)
(1.44041e-05 -2.42937e-05 -5.66507e-20)
(1.80942e-05 -1.9578e-05 5.64263e-20)
(2.20581e-05 -1.38311e-05 -5.612e-20)
(2.61636e-05 -7.46884e-06 5.58516e-20)
(3.02287e-05 -9.13655e-07 0)
(3.40891e-05 5.50446e-06 -5.51495e-20)
(3.75722e-05 1.13012e-05 5.48157e-20)
(4.04557e-05 1.62125e-05 0)
(4.25315e-05 2.00426e-05 0)
(4.36089e-05 2.26971e-05 -1.07189e-19)
(4.35113e-05 2.42035e-05 3.41801e-23)
(4.20915e-05 2.47135e-05 1.05514e-19)
(3.92134e-05 2.44716e-05 0)
(3.47042e-05 2.3645e-05 -1.0379e-19)
(2.84061e-05 2.1881e-05 1.02872e-19)
(1.96236e-05 1.82244e-05 0)
(8.03908e-06 9.69812e-06 -8.63404e-20)
(6.56297e-08 -5.56052e-06 0)
(5.56165e-07 -1.30043e-05 0)
(1.36555e-06 -1.96013e-05 0)
(2.56432e-06 -2.52846e-05 0)
(4.2058e-06 -2.95235e-05 0)
(6.36794e-06 -3.19242e-05 0)
(9.11006e-06 -3.23351e-05 0)
(1.24573e-05 -3.07985e-05 0)
(1.6393e-05 -2.74952e-05 0)
(2.08612e-05 -2.27145e-05 0)
(2.57634e-05 -1.68285e-05 0)
(3.09603e-05 -1.02593e-05 0)
(3.63367e-05 -3.4521e-06 0)
(4.16048e-05 3.26853e-06 0)
(4.65016e-05 9.50803e-06 0)
(5.08584e-05 1.49785e-05 0)
(5.43848e-05 1.95572e-05 0)
(5.68095e-05 2.31922e-05 0)
(5.78653e-05 2.59291e-05 0)
(5.73052e-05 2.78893e-05 0)
(5.48517e-05 2.92192e-05 0)
(5.00964e-05 2.9909e-05 0)
(4.24969e-05 2.92734e-05 0)
(3.05179e-05 2.58407e-05 0)
(1.27181e-05 1.4822e-05 0)
(7.04546e-08 -6.01464e-06 6.26671e-21)
(6.28709e-07 -1.41137e-05 6.96986e-21)
(1.55714e-06 -2.12922e-05 -1.39283e-20)
(2.92931e-06 -2.75199e-05 2.78141e-20)
(4.81908e-06 -3.22523e-05 -2.77676e-20)
(7.33486e-06 -3.50816e-05 0)
(1.05664e-05 -3.5846e-05 2.76209e-20)
(1.4567e-05 -3.45815e-05 2.75225e-20)
(1.93441e-05 -3.14694e-05 -1.09753e-19)
(2.48564e-05 -2.68043e-05 5.46679e-20)
(3.10172e-05 -2.09676e-05 5.43963e-20)
(3.76979e-05 -1.43808e-05 -5.41601e-20)
(4.47441e-05 -7.47085e-06 -5.3838e-20)
(5.18603e-05 -6.22056e-07 1.07089e-19)
(5.87532e-05 6.00249e-06 -3.91572e-23)
(6.52124e-05 1.20345e-05 5.2798e-20)
(7.09189e-05 1.74618e-05 -1.05022e-19)
(7.55071e-05 2.23403e-05 -1.04169e-19)
(7.86027e-05 2.67791e-05 2.06829e-19)
(7.97974e-05 3.09196e-05 -1.02633e-19)
(7.85728e-05 3.48328e-05 0)
(7.41255e-05 3.82939e-05 1.00923e-19)
(6.51887e-05 4.01416e-05 -2.00237e-19)
(4.83801e-05 3.82328e-05 9.92955e-20)
(2.09294e-05 2.37948e-05 8.51562e-20)
(7.65515e-08 -6.51132e-06 0)
(7.43636e-07 -1.53446e-05 0)
(1.85838e-06 -2.31686e-05 0)
(3.49829e-06 -3.00171e-05 0)
(5.75885e-06 -3.53478e-05 0)
(8.78085e-06 -3.87429e-05 0)
(1.26872e-05 -4.00274e-05 0)
(1.75616e-05 -3.92244e-05 0)
(2.34379e-05 -3.65107e-05 0)
(3.02951e-05 -3.21829e-05 0)
(3.80601e-05 -2.66209e-05 0)
(4.66052e-05 -2.02407e-05 0)
(5.57561e-05 -1.34458e-05 0)
(6.53212e-05 -6.62236e-06 0)
(7.48853e-05 1.23675e-07 0)
(8.41797e-05 6.72908e-06 0)
(9.30167e-05 1.30578e-05 0)
(0.000100929 1.93241e-05 0)
(0.000107432 2.58059e-05 -1.01894e-19)
(0.000111961 3.28404e-05 1.01194e-19)
(0.000113698 4.08007e-05 0)
(0.000111185 4.97908e-05 0)
(0.000101805 5.85514e-05 0)
(7.8986e-05 6.3483e-05 0)
(3.97394e-05 4.51949e-05 0)
(8.92392e-08 -7.11135e-06 0)
(9.02575e-07 -1.68387e-05 0)
(2.2743e-06 -2.54401e-05 0)
(4.28224e-06 -3.30392e-05 0)
(7.04646e-06 -3.91029e-05 0)
(1.07421e-05 -4.32053e-05 0)
(1.55274e-05 -4.51586e-05 0)
(2.15172e-05 -4.49763e-05 0)
(2.87718e-05 -4.28332e-05 0)
(3.72933e-05 -3.90307e-05 0)
(4.7024e-05 -3.39477e-05 -5.26767e-20)
(5.78494e-05 -2.79862e-05 5.24675e-20)
(6.95904e-05 -2.15065e-05 0)
(8.20391e-05 -1.47947e-05 0)
(9.50204e-05 -8.07864e-06 0)
(0.000108189 -1.1887e-06 0)
(0.000121228 5.94312e-06 0)
(0.000133873 1.36086e-05 0)
(0.000145713 2.24704e-05 0)
(0.000156329 3.33004e-05 0)
(0.000164962 4.72396e-05 0)
(0.000169684 6.51334e-05 -9.78691e-20)
(0.000166297 8.56374e-05 9.71464e-20)
(0.000144592 0.000100938 0)
(9.24516e-05 7.9941e-05 0)
(1.06378e-07 -7.68935e-06 0)
(1.07413e-06 -1.82739e-05 0)
(2.73994e-06 -2.7626e-05 0)
(5.17652e-06 -3.60189e-05 0)
(8.50839e-06 -4.29731e-05 0)
(1.29256e-05 -4.80628e-05 0)
(1.8609e-05 -5.10755e-05 0)
(2.57003e-05 -5.1991e-05 0)
(3.42889e-05 -5.09469e-05 0)
(4.44098e-05 -4.82067e-05 0)
(5.60419e-05 -4.41111e-05 0)
(6.91103e-05 -3.90172e-05 0)
(8.35e-05 -3.32469e-05 0)
(9.90664e-05 -2.70352e-05 0)
(0.000115677 -2.05232e-05 0)
(0.000133158 -1.37622e-05 0)
(0.000151341 -6.50594e-06 0)
(0.000170246 1.58747e-06 0)
(0.000189875 1.12698e-05 0)
(0.000210537 2.38061e-05 0)
(0.00023271 4.05931e-05 0)
(0.000256904 6.31986e-05 0)
(0.000284524 9.10495e-05 0)
(0.000318123 0.000113452 0)
(0.000355226 0.000100968 0)
(1.15577e-07 -8.23947e-06 0)
(1.23183e-06 -1.96546e-05 0)
(3.17749e-06 -2.9749e-05 0)
(6.01207e-06 -3.89921e-05 0)
(9.85373e-06 -4.69991e-05 0)
(1.48969e-05 -5.33608e-05 0)
(2.13349e-05 -5.78406e-05 0)
(2.93282e-05 -6.03732e-05 0)
(3.89924e-05 -6.10415e-05 0)
(5.03936e-05 -6.00484e-05 0)
(6.35464e-05 -5.76754e-05 0)
(7.84177e-05 -5.42295e-05 0)
(9.49385e-05 -4.99962e-05 0)
(0.000113022 -4.52103e-05 0)
(0.000132574 -4.00284e-05 0)
(0.000153513 -3.45326e-05 0)
(0.00017579 -2.86276e-05 0)
(0.000199498 -2.20467e-05 0)
(0.000225013 -1.43292e-05 0)
(0.000252641 -4.51901e-06 0)
(0.000282934 8.39326e-06 0)
(0.000317054 2.57239e-05 0)
(0.000356432 4.75694e-05 0)
(0.000399695 6.87168e-05 0)
(0.000428269 7.46878e-05 0)
(1.24295e-07 -8.90197e-06 0)
(1.40855e-06 -2.13395e-05 0)
(3.67438e-06 -3.23421e-05 0)
(6.96876e-06 -4.25738e-05 0)
(1.13936e-05 -5.17426e-05 0)
(1.71379e-05 -5.94601e-05 0)
(2.43963e-05 -6.54737e-05 0)
(3.33373e-05 -6.96842e-05 0)
(4.40913e-05 -7.21315e-05 0)
(5.6745e-05 -7.29722e-05 0)
(7.13396e-05 -7.24423e-05 0)
(8.7873e-05 -7.081e-05 0)
(0.00010631 -6.83339e-05 0)
(0.000126595 -6.52343e-05 0)
(0.000148666 -6.16757e-05 0)
(0.00017247 -5.77458e-05 0)
(0.00019798 -5.34258e-05 0)
(0.000225246 -4.8542e-05 0)
(0.000254433 -4.27449e-05 0)
(0.00028567 -3.54955e-05 0)
(0.000319108 -2.56514e-05 0)
(0.000354882 -1.17962e-05 0)
(0.000392477 7.42165e-06 0)
(0.000428235 3.23453e-05 0)
(0.000448348 6.48751e-05 0)
(1.36435e-07 -9.65633e-06 0)
(1.6079e-06 -2.32897e-05 0)
(4.2367e-06 -3.53546e-05 0)
(8.05156e-06 -4.67116e-05 0)
(1.31297e-05 -5.71658e-05 0)
(1.96452e-05 -6.63563e-05 0)
(2.77841e-05 -7.40212e-05 0)
(3.77127e-05 -8.00336e-05 0)
(4.9565e-05 -8.43957e-05 0)
(6.34372e-05 -8.72222e-05 0)
(7.93845e-05 -8.87076e-05 0)
(9.74225e-05 -8.90848e-05 0)
(0.000117534 -8.85859e-05 0)
(0.000139677 -8.74149e-05 0)
(0.000163793 -8.5728e-05 0)
(0.000189813 -8.36171e-05 0)
(0.000217665 -8.10847e-05 0)
(0.000247275 -7.79943e-05 0)
(0.000278554 -7.40056e-05 0)
(0.000311325 -6.84606e-05 0)
(0.000345244 -6.00835e-05 0)
(0.000379639 -4.68998e-05 0)
(0.000413082 -2.60376e-05 0)
(0.000442213 6.62771e-06 0)
(0.000459686 5.88584e-05 0)
(1.50122e-07 -1.05133e-05 0)
(1.82856e-06 -2.55349e-05 0)
(4.85849e-06 -3.88334e-05 0)
(9.2461e-06 -5.14643e-05 0)
(1.50364e-05 -6.33323e-05 0)
(2.23806e-05 -7.41095e-05 0)
(3.14476e-05 -8.35307e-05 0)
(4.23923e-05 -9.1447e-05 0)
(5.53429e-05 -9.78288e-05 0)
(7.03943e-05 -0.000102753 0)
(8.76043e-05 -0.000106375 0)
(0.000106993 -0.000108893 0)
(0.000128547 -0.000110508 0)
(0.000152221 -0.0001114 0)
(0.000177943 -0.000111702 0)
(0.00020561 -0.000111485 0)
(0.000235083 -0.000110721 0)
(0.000266169 -0.000109231 0)
(0.000298596 -0.000106587 0)
(0.000331953 -0.00010194 0)
(0.00036563 -9.37657e-05 0)
(0.000398723 -7.95958e-05 0)
(0.000429899 -5.56877e-05 0)
(0.000457185 -1.65858e-05 0)
(0.00047797 4.60003e-05 0)
(1.64531e-07 -1.14835e-05 0)
(2.0649e-06 -2.81037e-05 0)
(5.52502e-06 -4.28217e-05 0)
(1.05247e-05 -5.68833e-05 0)
(1.7071e-05 -7.02945e-05 0)
(2.52854e-05 -8.2764e-05 0)
(3.53129e-05 -9.40287e-05 0)
(4.72891e-05 -0.000103923 0)
(6.13284e-05 -0.000112391 0)
(7.7516e-05 -0.000119476 0)
(9.59027e-05 -0.000125296 0)
(0.000116503 -0.000130014 0)
(0.000139296 -0.000133796 0)
(0.000164225 -0.000136788 0)
(0.000191196 -0.00013909 0)
(0.000220075 -0.000140724 0)
(0.000250667 -0.000141607 0)
(0.000282709 -0.000141476 0)
(0.000315835 -0.000139782 0)
(0.000349557 -0.000135516 0)
(0.00038325 -0.000126967 0)
(0.000416175 -0.00011146 0)
(0.000447567 -8.5102e-05 0)
(0.00047685 -4.25875e-05 0)
(0.000504245 2.29664e-05 0)
(1.79001e-07 -1.25729e-05 0)
(2.30909e-06 -3.10147e-05 0)
(6.21607e-06 -4.73479e-05 0)
(1.18509e-05 -6.3003e-05 0)
(1.91785e-05 -7.80869e-05 0)
(2.82859e-05 -9.23484e-05 0)
(3.92887e-05 -0.000105531 0)
(5.22977e-05 -0.000117459 0)
(6.74069e-05 -0.000128051 0)
(8.4685e-05 -0.000137322 0)
(0.000104169 -0.000145357 0)
(0.000125861 -0.00015228 0)
(0.000149728 -0.000158223 0)
(0.000175698 -0.000163292 0)
(0.000203659 -0.000167543 0)
(0.000233453 -0.000170947 0)
(0.000264862 -0.00017335 0)
(0.000297599 -0.000174406 0)
(0.000331297 -0.000173468 0)
(0.000365514 -0.000169433 0)
(0.000399772 -0.000160545 0)
(0.000433667 -0.0001442 0)
(0.000467057 -0.000116823 0)
(0.000500403 -7.39144e-05 0)
(0.000535359 -1.03497e-05 0)
(1.92885e-07 -1.37831e-05 0)
(2.5527e-06 -3.4275e-05 0)
(6.90982e-06 -5.24243e-05 0)
(1.31852e-05 -6.98382e-05 0)
(2.12996e-05 -8.67235e-05 0)
(3.13027e-05 -0.000102872 0)
(4.32773e-05 -0.000118038 0)
(5.73053e-05 -0.000132038 0)
(7.34562e-05 -0.000144774 0)
(9.17774e-05 -0.000156233 0)
(0.000112288 -0.000166467 0)
(0.000134975 -0.000175567 0)
(0.000159791 -0.000183628 0)
(0.000186651 -0.000190716 0)
(0.000215431 -0.000196842 0)
(0.000245967 -0.000201929 0)
(0.000278042 -0.000205763 0)
(0.00031139 -0.000207934 0)
(0.0003457 -0.000207745 0)
(0.000380649 -0.000204081 0)
(0.000415974 -0.00019527 0)
(0.000451612 -0.000178967 0)
(0.000487923 -0.00015214 0)
(0.000525993 -0.000111248 0)
(0.000568057 -5.27119e-05 0)
(2.05589e-07 -1.51113e-05 0)
(2.78777e-06 -3.78807e-05 0)
(7.58503e-06 -5.80471e-05 0)
(1.44891e-05 -7.73847e-05 0)
(2.33763e-05 -9.61983e-05 0)
(3.42582e-05 -0.000114324 0)
(4.7183e-05 -0.000131532 0)
(6.22017e-05 -0.000147635 0)
(7.93564e-05 -0.00016252 0)
(9.8671e-05 -0.000176151 0)
(0.000120145 -0.000188552 0)
(0.00014375 -0.00019978 0)
(0.000169424 -0.000209896 0)
(0.000197077 -0.000218933 0)
(0.000226581 -0.000226863 0)
(0.000257777 -0.000233566 0)
(0.000290473 -0.00023879 0)
(0.00032445 -0.000242095 0)
(0.000359484 -0.00024278 0)
(0.000395394 -0.00023979 0)
(0.000432127 -0.000231629 0)
(0.000469899 -0.000216308 0)
(0.0005094 -0.000191393 0)
(0.000552021 -0.000154236 0)
(0.000600106 -0.000102445 0)
(2.16649e-07 -1.65512e-05 0)
(3.00728e-06 -4.1818e-05 0)
(8.22286e-06 -6.41978e-05 0)
(1.57278e-05 -8.56208e-05 0)
(2.53561e-05 -0.000106486 0)
(3.70815e-05 -0.000126677 0)
(5.09178e-05 -0.00014598 0)
(6.68841e-05 -0.00016421 0)
(8.49942e-05 -0.000181242 0)
(0.000105248 -0.00019702 0)
(0.000127627 -0.000211545 0)
(0.000152086 -0.000224846 0)
(0.000178556 -0.000236956 0)
(0.000206942 -0.000247876 0)
(0.000237124 -0.00025755 0)
(0.000268959 -0.000265834 0)
(0.00030229 -0.000272456 0)
(0.00033696 -0.000276978 0)
(0.000372842 -0.000278738 0)
(0.000409885 -0.000276791 0)
(0.000448211 -0.000269865 0)
(0.000488229 -0.000256348 0)
(0.000530803 -0.000234375 0)
(0.000577413 -0.00020205 0)
(0.000630275 -0.000157842 0)
(2.25731e-07 -1.80932e-05 0)
(3.20555e-06 -4.60642e-05 0)
(8.8074e-06 -7.08449e-05 0)
(1.68718e-05 -9.45088e-05 0)
(2.71935e-05 -0.000117546 0)
(3.97107e-05 -0.000139885 0)
(5.44035e-05 -0.000161334 0)
(7.12598e-05 -0.00018171 0)
(9.02661e-05 -0.000200884 0)
(0.0001114 -0.000218784 0)
(0.000134623 -0.00023539 0)
(0.00015988 -0.000250711 0)
(0.000187097 -0.000264756 0)
(0.000216179 -0.000277507 0)
(0.000247018 -0.000288889 0)
(0.000279496 -0.000298747 0)
(0.000313498 -0.000306814 0)
(0.000348931 -0.000312678 0)
(0.000385754 -0.000315746 0)
(0.000424029 -0.000315212 0)
(0.000464002 -0.000310037 0)
(0.000506198 -0.000298971 0)
(0.000551543 -0.000280643 0)
(0.000601467 -0.000253753 0)
(0.000657955 -0.000217386 0)
(2.32638e-07 -1.97253e-05 0)
(3.37826e-06 -5.05895e-05 0)
(9.32628e-06 -7.7946e-05 0)
(1.78973e-05 -0.000103997 0)
(2.88514e-05 -0.000129319 0)
(4.20941e-05 -0.000153887 0)
(5.75737e-05 -0.000177529 0)
(7.52489e-05 -0.000200072 0)
(9.50802e-05 -0.000221382 0)
(0.000117024 -0.000241378 0)
(0.000141028 -0.000260027 0)
(0.000167026 -0.000277323 0)
(0.000194941 -0.000293259 0)
(0.000224686 -0.000307804 0)
(0.000256166 -0.000320878 0)
(0.000289293 -0.00033233 0)
(0.000323992 -0.000341912 0)
(0.000360228 -0.000349261 0)
(0.000398034 -0.00035387 0)
(0.000437559 -0.000355081 0)
(0.000479126 -0.00035208 0)
(0.000523316 -0.000343935 0)
(0.000571043 -0.000329681 0)
(0.000623618 -0.000308479 0)
(0.000682758 -0.000279843 0)
(2.37283e-07 -2.14337e-05 0)
(3.52251e-06 -5.53588e-05 0)
(9.77057e-06 -8.54499e-05 0)
(1.87867e-05 -0.000114024 0)
(3.03015e-05 -0.000141736 0)
(4.4191e-05 -0.000168607 0)
(6.03748e-05 -0.000194489 0)
(7.87847e-05 -0.000219217 0)
(9.93582e-05 -0.00024266 0)
(0.000122033 -0.000264732 0)
(0.000146743 -0.000285394 0)
(0.000173417 -0.000304628 0)
(0.000201976 -0.000322422 0)
(0.000232341 -0.00033874 0)
(0.000264435 -0.000353507 0)
(0.000298196 -0.000366588 0)
(0.000333587 -0.000377768 0)
(0.000370621 -0.000386743 0)
(0.000409389 -0.000393104 0)
(0.000450096 -0.000396335 0)
(0.000493112 -0.000395827 0)
(0.000539028 -0.000390918 0)
(0.000588703 -0.000380965 0)
(0.000643302 -0.000365471 0)
(0.00070428 -0.000344248 0)
(2.39687e-07 -2.32037e-05 0)
(3.6367e-06 -6.03333e-05 0)
(1.01348e-05 -9.32994e-05 0)
(1.95283e-05 -0.000124518 0)
(3.15237e-05 -0.000154717 0)
(4.59718e-05 -0.00018396 0)
(6.27665e-05 -0.000212124 0)
(8.1816e-05 -0.000239056 0)
(0.000103037 -0.000264631 0)
(0.000126352 -0.000288765 0)
(0.000151683 -0.000311414 0)
(0.000178954 -0.00033256 0)
(0.000208088 -0.000352189 0)
(0.000239014 -0.000370271 0)
(0.000271671 -0.000386743 0)
(0.00030602 -0.000401494 0)
(0.000342055 -0.000414353 0)
(0.000379829 -0.000425081 0)
(0.000419469 -0.000433366 0)
(0.000461217 -0.000438827 0)
(0.00050546 -0.000441033 0)
(0.000552767 -0.000439543 0)
(0.000603925 -0.000433965 0)
(0.000659948 -0.000424052 0)
(0.000722053 -0.000409819 0)
(2.39942e-07 -2.502e-05 0)
(3.72039e-06 -6.5472e-05 0)
(1.04164e-05 -0.000101433 0)
(2.01158e-05 -0.000135403 0)
(3.25065e-05 -0.000168174 0)
(4.74178e-05 -0.000199851 0)
(6.47219e-05 -0.000230334 0)
(8.43065e-05 -0.000259489 0)
(0.000106071 -0.000287197 0)
(0.000129924 -0.000313381 0)
(0.000155778 -0.000337999 0)
(0.000183554 -0.000361038 0)
(0.000213176 -0.000382488 0)
(0.000244581 -0.00040233 0)
(0.000277721 -0.000420522 0)
(0.000312577 -0.000436983 0)
(0.000349166 -0.00045159 0)
(0.000387567 -0.000464171 0)
(0.000427931 -0.000474508 0)
(0.000470514 -0.00048234 0)
(0.000515698 -0.00048739 0)
(0.000564016 -0.000489393 0)
(0.000616171 -0.000488148 0)
(0.000673032 -0.000483591 0)
(0.000735614 -0.000475872 0)
(2.38207e-07 -2.68675e-05 0)
(3.77404e-06 -7.07336e-05 0)
(1.06154e-05 -0.000109788 0)
(2.05477e-05 -0.000146598 0)
(3.32454e-05 -0.000182013 0)
(4.85204e-05 -0.000216177 0)
(6.6227e-05 -0.000249014 0)
(8.62356e-05 -0.000280407 0)
(0.000108431 -0.00031025 0)
(0.000132709 -0.000338474 0)
(0.000158977 -0.000365047 0)
(0.000187151 -0.000389962 0)
(0.000217156 -0.000413222 0)
(0.000248936 -0.000434823 0)
(0.000282452 -0.000454746 0)
(0.000317699 -0.000472948 0)
(0.000354712 -0.000489353 0)
(0.000393581 -0.000503857 0)
(0.00043447 -0.000516324 0)
(0.000477633 -0.000526604 0)
(0.000523432 -0.000534544 0)
(0.000572352 -0.00054002 0)
(0.000625009 -0.00054298 0)
(0.000682142 -0.000543486 0)
(0.00074459 -0.000541778 0)
(2.34672e-07 -2.87316e-05 0)
(3.79892e-06 -7.6077e-05 0)
(1.07342e-05 -0.000118301 0)
(2.08269e-05 -0.000158022 0)
(3.37428e-05 -0.000196141 0)
(4.92806e-05 -0.000232833 0)
(6.72801e-05 -0.000268051 0)
(8.75975e-05 -0.000301694 0)
(0.000110105 -0.000333673 0)
(0.00013469 -0.000363929 0)
(0.000161252 -0.000392444 0)
(0.000189703 -0.00041922 0)
(0.000219971 -0.000444277 0)
(0.000252001 -0.000467632 0)
(0.000285762 -0.000489292 0)
(0.000321257 -0.000509249 0)
(0.000358528 -0.000527479 0)
(0.000397672 -0.000543938 0)
(0.000438852 -0.000558567 0)
(0.000482307 -0.000571309 0)
(0.000528371 -0.000582114 0)
(0.000577473 -0.000590971 0)
(0.000630146 -0.000597935 0)
(0.000687009 -0.000603162 0)
(0.00074875 -0.00060695 0)
(2.29564e-07 -3.05986e-05 0)
(3.79685e-06 -8.14631e-05 0)
(1.07767e-05 -0.000126911 0)
(2.09595e-05 -0.000169596 0)
(3.40066e-05 -0.000210461 0)
(4.97074e-05 -0.000249715 0)
(6.78901e-05 -0.000287333 0)
(8.83999e-05 -0.000323233 0)
(0.000111099 -0.000357344 0)
(0.000135866 -0.000389623 0)
(0.000162595 -0.000420063 0)
(0.000191195 -0.000448685 0)
(0.000221592 -0.000475523 0)
(0.000253732 -0.000500619 0)
(0.000287589 -0.000524008 0)
(0.000323166 -0.00054572 0)
(0.000360509 -0.000565775 0)