/*--------------------------------*- C++ -*----------------------------------*\
  =========                 |
  \\      /  F ield         | OpenFOAM: The Open Source CFD Toolbox
   \\    /   O peration     | Website:  https://openfoam.org
    \\  /    A nd           | Version:  13
     \\/     M anipulation  |
\*---------------------------------------------------------------------------*/
FoamFile
{
    format      ascii;
    class       volScalarField;
    location    "22";
    object      p;
}
// * * * * * * * * * * * * * * * * * * * * * * * * * * * * * * * * * * * * * //

dimensions      [0 2 -2 0 0 0 0];

internalField   nonuniform List<scalar> 
6440
(
146.797
146.8
146.799
146.78
146.744
146.69
146.615
146.519
146.4
146.26
146.103
145.936
145.766
145.609
145.478
145.388
145.347
145.358
145.418
145.514
145.627
145.737
145.824
145.872
145.887
146.793
146.794
146.784
146.757
146.713
146.65
146.566
146.458
146.324
146.166
145.987
145.797
145.608
145.438
145.301
145.222
145.201
145.232
145.314
145.434
145.568
145.695
145.797
145.861
145.875
146.784
146.774
146.748
146.711
146.663
146.599
146.513
146.398
146.249
146.067
145.855
145.63
145.411
145.222
145.088
145.022
145.018
145.067
145.159
145.283
145.425
145.562
145.677
145.755
145.766
146.776
146.755
146.721
146.683
146.634
146.565
146.467
146.332
146.152
145.922
145.653
145.364
145.086
144.866
144.746
144.726
144.771
144.851
144.957
145.089
145.24
145.39
145.514
145.6
145.619
146.783
146.759
146.728
146.69
146.634
146.548
146.425
146.258
146.036
145.756
145.427
145.077
144.749
144.518
144.431
144.461
144.555
144.672
144.801
144.946
145.106
145.264
145.397
145.493
145.517
146.812
146.79
146.762
146.719
146.649
146.542
146.392
146.191
145.934
145.619
145.26
144.894
144.584
144.414
144.374
144.405
144.489
144.611
144.752
144.907
145.069
145.225
145.358
145.465
145.501
146.849
146.832
146.801
146.747
146.66
146.534
146.364
146.146
145.873
145.545
145.177
144.815
144.538
144.41
144.397
144.448
144.541
144.666
144.811
144.967
145.123
145.269
145.394
145.5
145.545
146.874
146.856
146.818
146.75
146.646
146.505
146.326
146.105
145.837
145.525
145.183
144.854
144.617
144.514
144.521
144.588
144.691
144.818
144.96
145.106
145.245
145.368
145.474
145.559
145.598
146.869
146.846
146.795
146.709
146.587
146.434
146.252
146.038
145.792
145.518
145.23
144.958
144.758
144.667
144.678
144.757
144.871
145.002
145.142
145.278
145.397
145.491
145.56
145.61
145.631
146.814
146.785
146.72
146.616
146.476
146.31
146.124
145.92
145.701
145.472
145.246
145.048
144.908
144.846
144.859
144.93
145.045
145.188
145.331
145.456
145.551
145.611
145.638
145.644
145.651
146.703
146.667
146.59
146.47
146.314
146.135
145.944
145.749
145.553
145.363
145.189
145.046
144.951
144.93
144.986
145.081
145.195
145.338
145.496
145.624
145.693
145.714
145.7
145.676
145.675
146.551
146.505
146.417
146.284
146.115
145.925
145.73
145.541
145.365
145.204
145.064
144.958
144.894
144.885
144.942
145.06
145.208
145.381
145.57
145.725
145.793
145.788
145.751
145.712
145.709
146.376
146.323
146.225
146.083
145.906
145.709
145.512
145.329
145.167
145.025
144.904
144.811
144.757
144.751
144.8
144.909
145.074
145.272
145.501
145.723
145.829
145.818
145.779
145.752
145.754
146.206
146.148
146.043
145.894
145.713
145.515
145.318
145.139
144.985
144.851
144.734
144.643
144.588
144.58
144.624
144.723
144.877
145.091
145.352
145.631
145.811
145.816
145.779
145.772
145.794
146.072
146.006
145.894
145.74
145.556
145.356
145.159
144.979
144.823
144.686
144.565
144.468
144.408
144.398
144.444
144.547
144.706
144.922
145.197
145.509
145.754
145.804
145.781
145.78
145.816
145.991
145.92
145.797
145.635
145.445
145.243
145.041
144.854
144.687
144.54
144.408
144.302
144.237
144.227
144.278
144.39
144.56
144.788
145.072
145.389
145.666
145.776
145.788
145.795
145.826
145.979
145.898
145.759
145.586
145.39
145.179
144.97
144.769
144.59
144.426
144.284
144.171
144.109
144.1
144.158
144.276
144.455
144.69
144.974
145.286
145.561
145.714
145.791
145.836
145.831
146.03
145.936
145.777
145.595
145.389
145.171
144.946
144.734
144.535
144.361
144.206
144.096
144.045
144.05
144.114
144.237
144.416
144.644
144.917
145.202
145.456
145.643
145.776
145.863
145.831
146.118
146.021
145.844
145.654
145.447
145.221
144.987
144.753
144.536
144.345
144.191
144.08
144.041
144.061
144.14
144.272
144.451
144.674
144.928
145.188
145.402
145.565
145.657
145.815
145.83
146.185
146.127
145.952
145.76
145.552
145.322
145.081
144.838
144.606
144.403
144.24
144.129
144.085
144.129
144.222
144.361
144.542
144.762
145.014
145.269
145.491
145.645
145.708
145.737
145.852
146.206
146.192
146.087
145.922
145.719
145.483
145.232
144.983
144.749
144.546
144.388
144.282
144.235
144.269
144.359
144.489
144.664
144.879
145.123
145.379
145.631
145.875
146.106
146.278
146.355
146.214
146.216
146.208
146.115
145.933
145.693
145.425
145.163
144.926
144.729
144.578
144.478
144.427
144.436
144.502
144.612
144.77
144.968
145.192
145.434
145.687
145.945
146.213
146.492
146.703
146.231
146.247
146.287
146.265
146.122
145.89
145.616
145.331
145.082
144.887
144.745
144.65
144.604
144.603
144.654
144.752
144.897
145.078
145.28
145.499
145.732
145.973
146.199
146.405
146.605
146.249
146.265
146.306
146.306
146.188
145.97
145.705
145.428
145.182
144.995
144.867
144.79
144.752
144.757
144.804
144.893
145.023
145.181
145.356
145.542
145.741
145.949
146.153
146.343
146.49
146.254
146.265
146.286
146.254
146.128
145.925
145.684
145.436
145.209
145.041
144.943
144.89
144.879
144.9
144.955
145.038
145.15
145.281
145.422
145.571
145.729
145.895
146.06
146.208
146.329
146.253
146.26
146.232
146.143
145.992
145.793
145.567
145.35
145.161
145.034
144.975
144.968
144.988
145.033
145.097
145.175
145.267
145.369
145.476
145.587
145.705
145.831
145.959
146.079
146.176
146.232
146.211
146.125
145.995
145.843
145.655
145.438
145.232
145.069
144.977
144.97
145.012
145.077
145.149
145.221
145.294
145.368
145.443
145.518
145.595
145.678
145.769
145.862
145.95
146.02
146.172
146.117
145.997
145.854
145.703
145.538
145.333
145.118
144.966
144.906
144.939
145.034
145.142
145.241
145.323
145.392
145.45
145.502
145.55
145.599
145.653
145.712
145.772
145.827
145.866
146.089
146.016
145.888
145.74
145.599
145.45
145.258
145.035
144.878
144.84
144.919
145.055
145.201
145.321
145.411
145.474
145.517
145.548
145.573
145.6
145.63
145.659
145.685
145.705
145.706
146.016
145.939
145.813
145.67
145.534
145.399
145.215
144.987
144.828
144.817
144.929
145.105
145.274
145.406
145.495
145.546
145.572
145.584
145.589
145.597
145.604
145.601
145.593
145.574
145.54
145.971
145.889
145.764
145.625
145.504
145.378
145.196
144.971
144.826
144.848
144.996
145.191
145.372
145.503
145.58
145.614
145.619
145.61
145.596
145.585
145.565
145.53
145.487
145.434
145.359
145.931
145.839
145.712
145.583
145.476
145.367
145.195
144.986
144.871
144.936
145.116
145.321
145.494
145.609
145.666
145.676
145.657
145.626
145.592
145.559
145.507
145.442
145.367
145.275
145.166
145.871
145.762
145.627
145.501
145.416
145.327
145.183
145.02
144.957
145.06
145.264
145.466
145.619
145.708
145.74
145.724
145.679
145.623
145.571
145.51
145.431
145.337
145.228
145.106
144.964
145.757
145.635
145.486
145.362
145.283
145.22
145.12
145.023
145.025
145.17
145.387
145.58
145.705
145.768
145.775
145.738
145.672
145.6
145.533
145.449
145.343
145.219
145.081
144.927
144.762
145.598
145.46
145.29
145.149
145.076
145.031
144.984
144.954
145.017
145.199
145.425
145.606
145.72
145.767
145.759
145.713
145.643
145.572
145.491
145.379
145.243
145.09
144.924
144.75
144.563
145.398
145.24
145.046
144.891
144.805
144.778
144.777
144.812
144.938
145.153
145.382
145.559
145.661
145.703
145.701
145.667
145.614
145.546
145.439
145.294
145.128
144.95
144.766
144.572
144.372
145.152
144.983
144.775
144.604
144.515
144.499
144.536
144.636
144.822
145.064
145.297
145.464
145.564
145.615
145.635
145.625
145.588
145.502
145.361
145.187
144.999
144.804
144.604
144.401
144.186
144.841
144.686
144.488
144.329
144.243
144.232
144.291
144.435
144.67
144.94
145.174
145.343
145.45
145.52
145.562
145.571
145.527
145.413
145.247
145.056
144.855
144.651
144.444
144.229
144.007
144.475
144.366
144.209
144.076
144.001
143.988
144.046
144.208
144.481
144.777
145.026
145.201
145.322
145.407
145.46
145.466
145.403
145.273
145.097
144.902
144.7
144.494
144.282
144.064
143.832
144.136
144.078
143.97
143.871
143.806
143.786
143.832
143.995
144.288
144.602
144.857
145.046
145.177
145.266
145.312
145.304
145.229
145.094
144.923
144.734
144.537
144.334
144.123
143.899
143.664
143.923
143.891
143.82
143.753
143.705
143.683
143.712
143.852
144.129
144.435
144.691
144.882
145.014
145.095
145.129
145.108
145.027
144.897
144.738
144.561
144.373
144.174
143.963
143.741
143.499
143.895
143.855
143.789
143.746
143.72
143.691
143.697
143.798
144.02
144.296
144.539
144.723
144.844
144.912
144.932
144.9
144.819
144.7
144.554
144.389
144.21
144.015
143.808
143.581
143.342
144.046
143.976
143.884
143.832
143.808
143.777
143.763
143.814
143.966
144.197
144.414
144.574
144.677
144.729
144.735
144.697
144.62
144.511
144.376
144.221
144.048
143.859
143.652
143.431
143.188
144.3
144.212
144.077
143.981
143.94
143.91
143.887
143.89
143.975
144.146
144.317
144.446
144.525
144.559
144.552
144.51
144.436
144.333
144.206
144.058
143.89
143.705
143.503
143.28
143.043
144.527
144.467
144.321
144.19
144.119
144.078
144.044
144.013
144.037
144.135
144.252
144.341
144.392
144.407
144.389
144.342
144.267
144.167
144.044
143.9
143.737
143.556
143.356
143.141
142.903
144.62
144.613
144.525
144.406
144.315
144.25
144.199
144.153
144.126
144.154
144.212
144.259
144.28
144.275
144.245
144.19
144.113
144.013
143.891
143.75
143.591
143.413
143.219
143.004
142.773
144.621
144.627
144.592
144.522
144.443
144.375
144.317
144.27
144.209
144.181
144.188
144.193
144.184
144.159
144.116
144.054
143.971
143.869
143.748
143.609
143.452
143.279
143.086
142.879
142.65
144.596
144.6
144.583
144.546
144.502
144.451
144.398
144.349
144.266
144.202
144.167
144.137
144.1
144.056
144.001
143.929
143.841
143.736
143.615
143.477
143.323
143.152
142.965
142.759
142.538
144.569
144.569
144.556
144.539
144.526
144.495
144.458
144.398
144.297
144.207
144.142
144.081
144.024
143.963
143.895
143.815
143.721
143.614
143.492
143.355
143.202
143.035
142.85
142.652
142.433
144.531
144.52
144.506
144.507
144.512
144.509
144.487
144.415
144.295
144.188
144.102
144.024
143.95
143.877
143.798
143.71
143.612
143.501
143.378
143.241
143.091
142.925
142.746
142.549
142.34
144.475
144.452
144.438
144.45
144.473
144.491
144.47
144.39
144.257
144.145
144.051
143.962
143.878
143.795
143.707
143.613
143.511
143.398
143.273
143.137
142.988
142.826
142.648
142.46
142.253
144.396
144.371
144.364
144.384
144.417
144.441
144.414
144.323
144.191
144.086
143.988
143.896
143.805
143.715
143.622
143.523
143.417
143.302
143.177
143.041
142.893
142.733
142.562
142.374
142.176
144.311
144.29
144.293
144.314
144.348
144.368
144.333
144.229
144.115
144.018
143.922
143.826
143.732
143.638
143.54
143.438
143.329
143.213
143.087
142.952
142.806
142.65
142.48
142.301
142.106
144.236
144.226
144.234
144.249
144.272
144.283
144.241
144.131
144.034
143.945
143.849
143.755
143.659
143.562
143.462
143.357
143.247
143.13
143.004
142.87
142.726
142.572
142.409
142.231
142.045
144.182
144.18
144.188
144.192
144.203
144.198
144.139
144.041
143.957
143.868
143.776
143.682
143.586
143.488
143.387
143.281
143.17
143.052
142.928
142.795
142.653
142.503
142.341
142.172
141.99
144.142
144.145
144.151
144.148
144.143
144.119
144.041
143.963
143.881
143.793
143.702
143.61
143.515
143.416
143.314
143.208
143.097
142.98
142.856
142.725
142.586
142.439
142.283
142.116
141.943
144.108
144.111
144.115
144.108
144.091
144.043
143.958
143.885
143.804
143.718
143.631
143.539
143.445
143.347
143.245
143.139
143.028
142.912
142.79
142.661
142.525
142.381
142.228
142.07
141.9
144.069
144.07
144.072
144.062
144.032
143.964
143.889
143.813
143.731
143.647
143.56
143.471
143.377
143.279
143.178
143.073
142.963
142.849
142.728
142.601
142.468
142.328
142.181
142.025
141.864
144.026
144.025
144.025
144.009
143.971
143.889
143.822
143.744
143.662
143.579
143.494
143.404
143.311
143.215
143.115
143.011
142.902
142.789
142.67
142.546
142.416
142.28
142.137
141.989
141.831
143.98
143.98
143.978
143.958
143.901
143.821
143.755
143.677
143.596
143.514
143.429
143.341
143.249
143.153
143.054
142.952
142.845
142.733
142.617
142.496
142.369
142.236
142.099
141.953
141.804
143.937
143.938
143.933
143.907
143.835
143.764
143.692
143.614
143.534
143.452
143.368
143.28
143.189
143.095
142.997
142.895
142.79
142.681
142.567
142.449
142.325
142.197
142.063
141.925
141.78
143.898
143.901
143.891
143.857
143.772
143.709
143.632
143.554
143.475
143.393
143.308
143.222
143.132
143.038
142.942
142.842
142.739
142.632
142.521
142.405
142.285
142.161
142.032
141.897
141.76
143.866
143.869
143.853
143.8
143.716
143.651
143.575
143.497
143.418
143.336
143.253
143.166
143.077
142.985
142.89
142.792
142.691
142.586
142.477
142.365
142.249
142.128
142.003
141.876
141.742
143.838
143.841
143.816
143.744
143.668
143.597
143.52
143.442
143.363
143.282
143.198
143.113
143.025
142.934
142.841
142.744
142.645
142.543
142.437
142.328
142.215
142.098
141.979
141.854
141.728
143.812
143.813
143.778
143.691
143.625
143.546
143.467
143.389
143.31
143.229
143.147
143.061
142.975
142.885
142.794
142.699
142.602
142.502
142.399
142.293
142.184
142.072
141.955
141.838
141.715
143.783
143.784
143.737
143.641
143.574
143.496
143.416
143.338
143.259
143.178
143.096
143.013
142.926
142.839
142.749
142.656
142.562
142.464
142.364
142.261
142.155
142.047
141.936
141.821
141.705
143.753
143.753
143.688
143.595
143.525
143.446
143.367
143.288
143.209
143.129
143.048
142.964
142.88
142.794
142.706
142.615
142.523
142.428
142.331
142.231
142.129
142.024
141.917
141.808
141.695
143.721
143.721
143.638
143.556
143.476
143.397
143.318
143.239
143.16
143.081
143
142.919
142.836
142.751
142.665
142.576
142.486
142.394
142.3
142.203
142.105
142.004
141.901
141.795
141.689
143.691
143.688
143.589
143.515
143.429
143.349
143.269
143.19
143.112
143.033
142.954
142.873
142.792
142.709
142.625
142.539
142.452
142.362
142.271
142.177
142.082
141.985
141.885
141.785
141.682
143.662
143.652
143.537
143.469
143.381
143.299
143.22
143.142
143.064
142.987
142.908
142.83
142.75
142.669
142.587
142.503
142.418
142.332
142.243
142.153
142.061
141.967
141.873
141.775
141.678
143.633
143.609
143.488
143.418
143.332
143.249
143.171
143.093
143.017
142.94
142.865
142.787
142.709
142.631
142.551
142.469
142.387
142.303
142.217
142.13
142.041
141.952
141.86
141.768
141.673
143.594
143.557
143.438
143.365
143.279
143.198
143.121
143.045
142.969
142.895
142.82
142.746
142.67
142.593
142.515
142.436
142.356
142.275
142.192
142.108
142.023
141.937
141.849
141.76
141.671
143.544
143.497
143.387
143.308
143.226
143.146
143.07
142.995
142.922
142.85
142.778
142.704
142.631
142.556
142.481
142.405
142.328
142.249
142.169
142.088
142.006
141.923
141.839
141.755
141.668
143.483
143.426
143.329
143.248
143.168
143.092
143.018
142.946
142.875
142.805
142.734
142.665
142.593
142.521
142.448
142.375
142.3
142.224
142.147
142.069
141.99
141.91
141.83
141.748
141.667
143.414
143.348
143.264
143.184
143.11
143.036
142.965
142.896
142.828
142.76
142.693
142.625
142.556
142.487
142.417
142.345
142.273
142.2
142.126
142.051
141.976
141.899
141.821
141.744
141.665
143.331
143.262
143.191
143.118
143.047
142.979
142.912
142.846
142.781
142.717
142.651
142.587
142.52
142.453
142.386
142.317
142.248
142.178
142.106
142.034
141.962
141.888
141.814
141.739
141.665
143.239
143.174
143.116
143.048
142.985
142.921
142.859
142.797
142.735
142.673
142.612
142.549
142.486
142.421
142.356
142.29
142.224
142.156
142.088
142.018
141.949
141.878
141.807
141.736
141.664
143.144
143.089
143.04
142.981
142.922
142.864
142.806
142.748
142.69
142.631
142.572
142.513
142.452
142.39
142.328
142.265
142.201
142.136
142.07
142.003
141.936
141.869
141.801
141.732
141.664
143.053
143.008
142.965
142.913
142.862
142.808
142.754
142.7
142.646
142.59
142.535
142.477
142.419
142.361
142.301
142.24
142.179
142.116
142.053
141.989
141.925
141.86
141.795
141.73
141.664
142.967
142.93
142.894
142.849
142.802
142.754
142.705
142.654
142.603
142.551
142.498
142.444
142.389
142.332
142.275
142.217
142.158
142.098
142.038
141.976
141.915
141.853
141.791
141.727
141.665
142.889
142.858
142.827
142.787
142.747
142.702
142.657
142.61
142.563
142.514
142.464
142.412
142.359
142.306
142.251
142.195
142.138
142.081
142.023
141.964
141.905
141.846
141.786
141.726
141.666
142.816
142.791
142.764
142.73
142.693
142.653
142.612
142.569
142.524
142.478
142.43
142.382
142.332
142.28
142.228
142.175
142.12
142.065
142.009
141.953
141.896
141.839
141.782
141.724
141.668
142.751
142.729
142.707
142.676
142.644
142.607
142.569
142.529
142.488
142.444
142.4
142.353
142.306
142.257
142.206
142.155
142.103
142.05
141.997
141.943
141.888
141.834
141.778
141.724
141.669
142.692
142.673
142.654
142.627
142.597
142.564
142.53
142.492
142.453
142.413
142.37
142.327
142.281
142.234
142.186
142.137
142.087
142.037
141.985
141.933
141.881
141.828
141.776
141.723
141.67
142.639
142.623
142.606
142.581
142.555
142.525
142.493
142.458
142.421
142.383
142.343
142.301
142.258
142.213
142.167
142.12
142.073
142.024
141.974
141.925
141.874
141.824
141.773
141.723
141.672
142.592
142.578
142.563
142.54
142.516
142.488
142.459
142.426
142.392
142.356
142.318
142.278
142.237
142.194
142.15
142.105
142.059
142.012
141.965
141.916
141.868
141.819
141.771
141.722
141.673
142.55
142.538
142.524
142.503
142.482
142.456
142.428
142.398
142.365
142.331
142.295
142.257
142.217
142.176
142.134
142.091
142.046
142.001
141.956
141.909
141.863
141.816
141.769
141.722
141.675
142.513
142.502
142.49
142.471
142.451
142.427
142.401
142.372
142.341
142.309
142.274
142.238
142.2
142.16
142.12
142.078
142.035
141.992
141.948
141.903
141.858
141.813
141.768
141.722
141.677
142.482
142.472
142.461
142.443
142.425
142.402
142.377
142.35
142.321
142.289
142.256
142.221
142.185
142.146
142.107
142.067
142.026
141.983
141.941
141.898
141.854
141.81
141.766
141.723
141.679
142.455
142.446
142.436
142.419
142.402
142.38
142.357
142.331
142.302
142.272
142.24
142.207
142.171
142.134
142.096
142.057
142.017
141.976
141.935
141.893
141.851
141.808
141.766
141.723
141.681
142.432
142.424
142.415
142.399
142.383
142.362
142.339
142.314
142.287
142.258
142.227
142.194
142.159
142.124
142.087
142.049
142.01
141.97
141.93
141.889
141.848
141.807
141.766
141.725
141.683
142.414
142.406
142.398
142.383
142.367
142.347
142.325
142.3
142.274
142.245
142.215
142.183
142.149
142.114
142.078
142.041
142.003
141.965
141.925
141.886
141.846
141.806
141.766
141.725
141.686
142.401
142.393
142.386
142.37
142.354
142.334
142.313
142.289
142.263
142.235
142.205
142.174
142.141
142.107
142.071
142.035
141.998
141.96
141.922
141.883
141.844
141.805
141.766
141.727
141.688
142.392
142.384
142.377
142.361
142.345
142.326
142.304
142.28
142.255
142.227
142.197
142.166
142.134
142.1
142.066
142.03
141.994
141.957
141.919
141.881
141.843
141.804
141.766
141.728
141.69
142.389
142.38
142.372
142.356
142.34
142.32
142.299
142.275
142.249
142.221
142.192
142.161
142.129
142.096
142.062
142.027
141.991
141.954
141.917
141.88
141.842
141.805
141.767
141.73
141.692
142.39
142.38
142.372
142.355
142.338
142.318
142.296
142.272
142.246
142.218
142.189
142.158
142.127
142.094
142.06
142.025
141.989
141.953
141.917
141.88
141.843
141.806
141.769
141.732
141.695
142.394
142.383
142.376
142.358
142.34
142.32
142.297
142.272
142.246
142.218
142.188
142.158
142.126
142.093
142.059
142.024
141.989
141.953
141.917
141.88
141.844
141.807
141.77
141.734
141.697
142.406
142.391
142.385
142.365
142.345
142.323
142.299
142.274
142.247
142.219
142.189
142.158
142.126
142.093
142.059
142.025
141.99
141.954
141.918
141.882
141.845
141.809
141.772
141.736
141.7
142.448
142.415
142.399
142.374
142.35
142.326
142.302
142.276
142.248
142.22
142.19
142.159
142.127
142.094
142.06
142.026
141.99
141.955
141.919
141.883
141.847
141.81
141.774
141.738
141.702
142.526
142.448
142.408
142.379
142.353
142.328
142.303
142.276
142.249
142.22
142.19
142.159
142.127
142.094
142.061
142.026
141.991
141.955
141.919
141.883
141.847
141.811
141.775
141.739
141.703
146.603
146.602
146.601
146.599
146.598
146.598
146.598
146.601
146.605
146.611
146.618
146.629
146.646
146.671
146.702
146.739
146.778
146.816
146.845
146.865
146.874
146.874
146.87
146.865
146.863
146.601
146.6
146.597
146.595
146.593
146.591
146.591
146.591
146.591
146.593
146.597
146.605
146.619
146.643
146.674
146.711
146.752
146.791
146.826
146.85
146.863
146.866
146.863
146.859
146.857
146.592
146.591
146.589
146.587
146.585
146.583
146.581
146.577
146.573
146.569
146.567
146.569
146.58
146.599
146.628
146.663
146.704
146.747
146.787
146.819
146.841
146.851
146.853
146.851
146.848
146.576
146.577
146.576
146.574
146.573
146.571
146.567
146.559
146.547
146.532
146.518
146.507
146.506
146.519
146.544
146.577
146.618
146.664
146.713
146.758
146.796
146.823
146.838
146.842
146.839
146.556
146.558
146.559
146.559
146.558
146.555
146.547
146.532
146.507
146.477
146.445
146.419
146.406
146.41
146.426
146.454
146.493
146.544
146.604
146.664
146.721
146.77
146.808
146.829
146.83
146.534
146.538
146.54
146.541
146.539
146.534
146.521
146.497
146.46
146.415
146.369
146.33
146.306
146.301
146.314
146.342
146.383
146.437
146.5
146.563
146.628
146.694
146.754
146.8
146.814
146.513
146.518
146.52
146.521
146.519
146.511
146.495
146.463
146.418
146.365
146.31
146.264
146.235
146.227
146.238
146.263
146.304
146.357
146.42
146.488
146.559
146.626
146.69
146.75
146.779
146.493
146.498
146.501
146.501
146.498
146.49
146.472
146.44
146.393
146.337
146.278
146.226
146.192
146.179
146.184
146.205
146.244
146.299
146.365
146.438
146.513
146.585
146.649
146.705
146.737
146.475
146.48
146.483
146.482
146.479
146.471
146.455
146.426
146.384
146.331
146.273
146.218
146.176
146.156
146.155
146.173
146.211
146.27
146.341
146.419
146.499
146.574
146.64
146.692
146.718
146.46
146.464
146.467
146.466
146.462
146.456
146.445
146.423
146.391
146.347
146.294
146.238
146.191
146.162
146.156
146.172
146.216
146.279
146.355
146.438
146.52
146.597
146.661
146.708
146.736
146.447
146.452
146.454
146.452
146.448
146.444
146.44
146.429
146.41
146.379
146.338
146.291
146.247
146.217
146.207
146.222
146.265
146.33
146.408
146.493
146.575
146.65
146.711
146.754
146.784
146.437
146.442
146.443
146.439
146.434
146.432
146.434
146.435
146.43
146.416
146.393
146.362
146.33
146.304
146.294
146.306
146.345
146.408
146.486
146.57
146.653
146.726
146.783
146.824
146.849
146.43
146.436
146.434
146.427
146.418
146.415
146.422
146.433
146.442
146.444
146.438
146.423
146.403
146.385
146.377
146.389
146.426
146.486
146.565
146.652
146.737
146.811
146.866
146.902
146.916
146.43
146.436
146.43
146.416
146.399
146.39
146.394
146.412
146.433
146.45
146.458
146.455
146.445
146.434
146.432
146.447
146.486
146.55
146.634
146.727
146.817
146.896
146.954
146.988
146.994
146.442
146.444
146.432
146.41
146.381
146.356
146.349
146.366
146.397
146.428
146.447
146.456
146.459
146.462
146.472
146.496
146.542
146.61
146.697
146.795
146.89
146.973
147.036
147.075
147.083
146.463
146.461
146.441
146.408
146.364
146.319
146.294
146.306
146.342
146.38
146.412
146.437
146.457
146.476
146.501
146.537
146.589
146.659
146.747
146.847
146.945
147.032
147.1
147.144
147.161
146.492
146.486
146.456
146.412
146.354
146.29
146.249
146.247
146.276
146.318
146.362
146.401
146.435
146.467
146.505
146.552
146.611
146.685
146.774
146.873
146.974
147.065
147.138
147.188
147.208
146.533
146.529
146.488
146.433
146.361
146.279
146.217
146.199
146.216
146.257
146.306
146.353
146.395
146.436
146.482
146.536
146.602
146.68
146.77
146.871
146.975
147.072
147.15
147.203
147.225
146.57
146.582
146.537
146.472
146.384
146.285
146.208
146.174
146.175
146.204
146.247
146.29
146.333
146.377
146.426
146.485
146.556
146.639
146.732
146.837
146.946
147.049
147.134
147.193
147.215
146.608
146.645
146.599
146.527
146.426
146.313
146.228
146.173
146.15
146.154
146.176
146.206
146.241
146.281
146.329
146.388
146.461
146.547
146.645
146.754
146.87
146.982
147.079
147.15
147.18
146.603
146.669
146.649
146.588
146.47
146.335
146.226
146.145
146.098
146.083
146.088
146.104
146.128
146.158
146.198
146.252
146.322
146.408
146.508
146.619
146.737
146.855
146.961
147.049
147.096
146.734
146.688
146.667
146.61
146.49
146.346
146.21
146.101
146.027
145.984
145.963
145.957
145.961
145.977
146.005
146.05
146.114
146.196
146.294
146.403
146.519
146.637
146.747
146.846
146.912
146.668
146.623
146.592
146.541
146.43
146.282
146.132
146.005
145.908
145.839
145.79
145.758
145.739
145.734
145.744
145.773
145.822
145.891
145.976
146.072
146.176
146.282
146.382
146.475
146.539
146.549
146.534
146.496
146.433
146.319
146.167
146.007
145.863
145.741
145.642
145.562
145.499
145.45
145.417
145.401
145.403
145.425
145.467
145.523
145.589
145.66
145.733
145.798
145.858
145.914
146.396
146.401
146.36
146.28
146.157
145.999
145.829
145.666
145.519
145.39
145.277
145.178
145.094
145.024
144.97
144.932
144.911
144.903
144.906
144.911
144.914
144.912
144.893
144.863
144.822
146.232
146.234
146.184
146.09
145.954
145.786
145.602
145.419
145.245
145.083
144.934
144.797
144.67
144.553
144.447
144.351
144.263
144.177
144.088
143.987
143.864
143.717
143.539
143.343
143.241
146.055
146.042
145.977
145.866
145.714
145.531
145.33
145.125
144.923
144.728
144.541
144.359
144.182
144.007
143.832
143.655
143.47
143.268
143.036
142.757
142.416
141.996
141.478
140.865
140.178
145.871
145.833
145.747
145.615
145.443
145.241
145.021
144.793
144.563
144.334
144.106
143.875
143.638
143.392
143.13
142.845
142.528
142.159
141.715
141.165
140.462
139.571
138.42
137.07
135.423
145.678
145.61
145.496
145.34
145.146
144.925
144.686
144.435
144.177
143.912
143.639
143.352
143.047
142.715
142.346
141.927
141.437
140.847
140.11
139.16
137.89
136.178
133.677
130.354
124.236
145.474
145.373
145.23
145.048
144.834
144.594
144.336
144.063
143.775
143.472
143.15
142.801
142.417
141.987
141.493
140.912
140.212
139.347
138.23
136.747
134.659
131.751
126.964
121.206
102.456
145.258
145.124
144.954
144.75
144.517
144.261
143.984
143.687
143.368
143.023
142.646
142.229
141.758
141.218
140.585
139.825
138.887
137.701
136.139
134.011
130.848
126.159
116.728
100.832
42.3774
145.032
144.869
144.676
144.454
144.206
143.933
143.636
143.312
142.958
142.568
142.134
141.644
141.082
140.426
139.646
138.697
137.512
135.992
133.973
131.202
127.107
120.954
110.208
92.7005
63.1613
144.803
144.618
144.407
144.17
143.906
143.615
143.295
142.942
142.551
142.114
141.62
141.056
140.402
139.631
138.704
137.568
136.143
134.312
131.894
128.609
123.992
117.362
107.761
93.4457
76.1638
144.579
144.377
144.15
143.897
143.617
143.306
142.961
142.578
142.149
141.666
141.115
140.479
139.737
138.855
137.789
136.478
134.833
132.729
129.978
126.311
121.332
114.48
105.087
91.9512
75.16
144.364
144.146
143.905
143.636
143.337
143.006
142.637
142.224
141.76
141.233
140.628
139.927
139.103
138.119
136.927
135.46
133.623
131.284
128.258
124.281
118.994
111.905
102.442
89.8363
73.9292
144.158
143.925
143.668
143.384
143.068
142.717
142.326
141.886
141.39
140.824
140.171
139.411
138.515
137.443
136.143
134.544
132.546
130.014
126.76
122.53
116.98
109.669
100.111
87.7461
72.4328
143.959
143.713
143.442
143.143
142.812
142.444
142.033
141.57
141.045
140.445
139.752
138.943
137.987
136.843
135.457
133.752
131.628
128.945
125.514
121.074
115.286
107.704
97.8493
85.1332
69.5107
143.768
143.51
143.228
142.917
142.572
142.189
141.761
141.278
140.731
140.103
139.378
138.531
137.53
136.334
134.885
133.107
130.895
128.107
124.543
119.943
113.937
106.049
95.7463
82.1774
65.4365
143.585
143.318
143.026
142.704
142.349
141.954
141.512
141.014
140.449
139.802
139.054
138.182
137.153
135.926
134.442
132.625
130.368
127.525
123.883
119.168
112.933
104.696
93.6974
78.7386
60.1003
143.41
143.135
142.835
142.506
142.142
141.738
141.287
140.779
140.203
139.544
138.785
137.901
136.862
135.626
134.137
132.321
130.071
127.24
123.599
118.855
112.406
103.747
91.1975
73.8786
50.3416
143.242
142.962
142.657
142.323
141.954
141.544
141.088
140.575
139.994
139.333
138.572
137.69
136.658
135.436
133.974
132.201
130.018
127.286
123.785
119.212
112.9
104.193
90.0327
69.9281
32.6822
143.081
142.799
142.491
142.154
141.783
141.372
140.914
140.401
139.823
139.166
138.415
137.547
136.538
135.353
133.946
132.256
130.197
127.652
124.442
120.308
114.75
107.155
94.8858
76.8411
26.9995
142.928
142.646
142.338
142
141.63
141.22
140.766
140.258
139.688
139.043
138.309
137.468
136.497
135.366
134.038
132.462
130.572
128.276
125.447
121.91
117.389
111.551
103.597
93.8507
74.5444
142.784
142.503
142.196
141.862
141.494
141.09
140.642
140.144
139.587
138.96
138.252
137.446
136.524
135.462
134.229
132.788
131.089
129.07
126.652
123.732
120.18
115.852
110.552
104.31
96.6389
142.648
142.37
142.067
141.737
141.376
140.979
140.541
140.057
139.517
138.915
138.238
137.475
136.609
135.624
134.496
133.197
131.696
129.955
127.928
125.571
122.844
119.736
116.303
112.827
109.889
142.521
142.248
141.951
141.627
141.274
140.887
140.462
139.994
139.476
138.901
138.26
137.543
136.74
135.835
134.814
133.659
132.349
130.865
129.187
127.304
125.221
122.976
120.671
118.543
116.975
142.404
142.137
141.846
141.531
141.187
140.812
140.403
139.953
139.459
138.915
138.312
137.645
136.904
136.081
135.165
134.145
133.012
131.756
130.376
128.877
127.285
125.652
124.081
122.749
121.888
142.297
142.036
141.753
141.447
141.115
140.754
140.361
139.932
139.464
138.951
138.388
137.77
137.092
136.348
135.531
134.637
133.66
132.602
131.468
130.273
129.046
127.838
126.731
125.841
125.301
142.199
141.946
141.672
141.376
141.056
140.709
140.334
139.927
139.486
139.005
138.482
137.914
137.296
136.626
135.901
135.118
134.28
133.388