/*--------------------------------*- C++ -*----------------------------------*\
  =========                 |
  \\      /  F ield         | OpenFOAM: The Open Source CFD Toolbox
   \\    /   O peration     | Website:  https://openfoam.org
    \\  /    A nd           | Version:  13
     \\/     M anipulation  |
\*---------------------------------------------------------------------------*/
FoamFile
{
    format      ascii;
    class       volScalarField;
    location    "22";
    object      p;
}
// * * * * * * * * * * * * * * * * * * * * * * * * * * * * * * * * * * * * * //

dimensions      [0 2 -2 0 0 0 0];

internalField   nonuniform List<scalar> 
6440
(
0.00135841
0.00135854
0.00135884
0.0013593
0.0013599
0.00136059
0.00136129
0.00136195
0.00136249
0.00136284
0.00136294
0.00136273
0.00136215
0.00136121
0.00135989
0.00135823
0.00135628
0.0013541
0.00135178
0.00134938
0.00134693
0.00134448
0.00134208
0.00133976
0.00133777
0.00135756
0.00135771
0.00135804
0.00135854
0.00135919
0.00135997
0.00136079
0.00136162
0.00136239
0.00136301
0.00136342
0.00136355
0.00136333
0.00136271
0.00136165
0.00136013
0.00135816
0.00135574
0.00135292
0.00134972
0.00134623
0.00134252
0.00133872
0.00133499
0.00133166
0.00135622
0.00135642
0.00135683
0.00135744
0.00135824
0.00135919
0.00136026
0.00136137
0.00136246
0.00136344
0.00136423
0.00136474
0.00136488
0.00136457
0.00136373
0.0013623
0.00136023
0.00135751
0.00135416
0.00135019
0.00134575
0.00134092
0.00133591
0.00133109
0.00132696
0.00135436
0.00135463
0.00135514
0.0013559
0.00135688
0.00135806
0.00135938
0.00136079
0.00136222
0.00136355
0.00136471
0.00136559
0.00136607
0.00136604
0.0013654
0.00136406
0.00136193
0.00135899
0.00135522
0.00135066
0.00134546
0.00133974
0.00133376
0.00132804
0.00132322
0.00135189
0.00135223
0.00135284
0.00135375
0.00135493
0.00135634
0.00135793
0.00135963
0.00136139
0.00136308
0.00136461
0.00136585
0.00136669
0.00136698
0.0013666
0.00136543
0.00136337
0.00136035
0.00135633
0.00135135
0.00134558
0.00133913
0.00133232
0.00132575
0.00132024
0.00134876
0.00134916
0.00134988
0.00135093
0.00135231
0.00135395
0.00135581
0.00135781
0.00135988
0.00136193
0.00136384
0.00136546
0.00136668
0.00136735
0.00136731
0.00136642
0.00136457
0.00136164
0.00135757
0.00135234
0.00134613
0.00133906
0.00133146
0.00132407
0.00131786
0.00134493
0.00134539
0.00134621
0.00134742
0.00134899
0.00135087
0.00135299
0.00135528
0.00135768
0.00136008
0.00136237
0.0013644
0.00136603
0.00136713
0.00136751
0.00136701
0.00136549
0.00136281
0.00135885
0.00135354
0.00134702
0.00133942
0.00133107
0.00132285
0.00131592
0.00134042
0.00134094
0.00134186
0.00134322
0.00134497
0.00134708
0.00134947
0.00135206
0.00135478
0.00135753
0.0013602
0.00136265
0.00136473
0.00136629
0.00136715
0.00136714
0.00136607
0.00136377
0.00136009
0.00135486
0.00134815
0.00134008
0.00133102
0.00132196
0.00131431
0.00133525
0.00133582
0.00133683
0.00133833
0.00134027
0.0013426
0.00134525
0.00134814
0.00135119
0.0013543
0.00135735
0.00136021
0.00136274
0.00136479
0.00136618
0.00136672
0.0013662
0.0013644
0.00136112
0.00135617
0.00134941
0.00134099
0.00133125
0.00132133
0.00131294
0.00132944
0.00133005
0.00133115
0.00133278
0.00133489
0.00133743
0.00134033
0.00134352
0.0013469
0.00135036
0.0013538
0.00135708
0.00136007
0.00136262
0.00136455
0.00136569
0.00136578
0.00136459
0.00136185
0.00135733
0.00135074
0.00134208
0.00133173
0.00132098
0.00131182
0.00132304
0.00132369
0.00132485
0.00132658
0.00132884
0.00133158
0.00133472
0.00133818
0.00134188
0.0013457
0.00134952
0.00135323
0.00135668
0.00135972
0.00136221
0.00136395
0.00136472
0.00136423
0.00136216
0.00135819
0.001352
0.0013433
0.00133247
0.00132091
0.00131096
0.00131611
0.00131677
0.00131799
0.00131979
0.00132216
0.00132505
0.00132839
0.0013321
0.00133609
0.00134025
0.00134446
0.0013486
0.00135252
0.00135607
0.00135911
0.00136147
0.00136293
0.0013632
0.00136193
0.0013587
0.00135308
0.00134467
0.00133349
0.00132118
0.00131042
0.00130871
0.00130938
0.00131061
0.00131246
0.00131489
0.00131787
0.00132134
0.00132524
0.00132947
0.00133394
0.00133852
0.00134308
0.00134747
0.00135155
0.00135517
0.00135817
0.00136034
0.00136143
0.00136105
0.00135873
0.00135391
0.00134604
0.00133483
0.00132188
0.00131034
0.00130094
0.0013016
0.00130281
0.00130464
0.00130707
0.00131007
0.00131359
0.00131758
0.00132196
0.00132664
0.00133151
0.00133645
0.00134135
0.001346
0.00135024
0.00135393
0.00135687
0.00135883
0.00135944
0.0013582
0.00135443
0.00134737
0.00133657
0.00132319
0.00131094
0.0012929
0.00129352
0.00129468
0.00129644
0.0012988
0.00130171
0.00130517
0.00130912
0.00131351
0.00131825
0.0013233
0.00132855
0.00133387
0.00133911
0.00134405
0.00134853
0.00135235
0.00135527
0.00135698
0.001357
0.00135456
0.00134874
0.0013387
0.00132546
0.00131263
0.00128471
0.00128527
0.00128633
0.00128797
0.00129016
0.0012929
0.00129616
0.00129991
0.00130411
0.00130874
0.00131376
0.0013191
0.00132468
0.00133043
0.00133608
0.00134144
0.00134631
0.00135042
0.00135345
0.00135495
0.00135418
0.00135007
0.00134155
0.00132915
0.00131615
0.00127649
0.00127697
0.00127791
0.00127936
0.0012813
0.00128374
0.00128665
0.00129003
0.00129384
0.00129811
0.00130283
0.00130799
0.00131354
0.00131945
0.00132566
0.00133187
0.00133789
0.00134344
0.00134817
0.00135158
0.00135297
0.0013515
0.0013456
0.00133519
0.00132273
0.00126838
0.00126878
0.00126955
0.00127074
0.00127236
0.00127438
0.00127681
0.00127963
0.00128286
0.00128653
0.00129065
0.00129526
0.00130037
0.00130599
0.00131216
0.00131887
0.00132582
0.00133284
0.00133963
0.00134573
0.00135039
0.00135275
0.00135108
0.00134498
0.00133492
0.00126052
0.00126082
0.00126139
0.00126229
0.00126351
0.00126505
0.00126689
0.00126905
0.00127155
0.00127441
0.00127768
0.0012814
0.00128564
0.00129046
0.00129595
0.00130223
0.00130944
0.00131731
0.00132587
0.00133491
0.00134407
0.00135232
0.00135794
0.00136061
0.00135781
0.00125302
0.00125321
0.0012536
0.00125421
0.00125505
0.0012561
0.00125737
0.00125888
0.00126063
0.00126267
0.00126502
0.00126775
0.00127092
0.00127465
0.00127905
0.00128429
0.00129053
0.00129823
0.00130749
0.00131835
0.00133134
0.00134668
0.0013637
0.00138255
0.00139994
0.00124595
0.00124609
0.00124637
0.00124682
0.00124744
0.00124823
0.00124919
0.00125033
0.00125168
0.00125325
0.00125509
0.00125724
0.00125979
0.00126284
0.00126651
0.00127095
0.00127643
0.00128323
0.00129171
0.00130265
0.0013167
0.00133468
0.00135936
0.00139799
0.00146804
0.00123913
0.00123925
0.00123952
0.00123994
0.00124053
0.00124129
0.00124222
0.00124332
0.00124462
0.00124614
0.00124792
0.00125002
0.0012525
0.00125548
0.00125907
0.00126346
0.00126887
0.00127561
0.00128408
0.00129494
0.00130894
0.00132743
0.00135306
0.00139085
0.00144636
0.00123254
0.00123267
0.00123294
0.00123337
0.00123397
0.00123474
0.00123567
0.0012368
0.00123811
0.00123966
0.00124146
0.00124357
0.00124608
0.00124907
0.00125266
0.00125703
0.00126238
0.001269
0.00127726
0.00128766
0.00130089
0.00131795
0.00134034
0.00136972
0.00140541
0.00122618
0.00122632
0.00122659
0.00122703
0.00122763
0.0012284
0.00122934
0.00123046
0.00123178
0.00123331
0.0012351
0.00123719
0.00123964
0.00124256
0.00124604
0.00125024
0.00125533
0.00126153
0.00126915
0.00127853
0.00129011
0.0013044
0.00132188
0.00134242
0.0013639
0.00122006
0.0012202
0.00122047
0.0012209
0.00122149
0.00122224
0.00122316
0.00122425
0.00122552
0.001227
0.00122871
0.0012307
0.00123302
0.00123575
0.00123899
0.00124283
0.00124744
0.00125295
0.00125957
0.00126749
0.00127691
0.00128793
0.00130044
0.00131371
0.00132584
0.00121418
0.00121431
0.00121457
0.00121498
0.00121555
0.00121627
0.00121714
0.00121817
0.00121937
0.00122075
0.00122233
0.00122415
0.00122626
0.00122872
0.00123159
0.00123495
0.00123891
0.00124355
0.00124897
0.00125523
0.00126235
0.0012702
0.0012784
0.00128614
0.001292
0.00120852
0.00120865
0.0012089
0.00120929
0.00120982
0.00121048
0.00121129
0.00121224
0.00121332
0.00121457
0.00121598
0.00121759
0.00121943
0.00122154
0.00122397
0.00122676
0.00122997
0.00123364
0.00123779
0.00124238
0.00124731
0.00125235
0.00125705
0.00126069
0.00126221
0.00120311
0.00120323
0.00120346
0.00120381
0.00120429
0.00120489
0.00120562
0.00120646
0.00120741
0.00120849
0.0012097
0.00121106
0.00121259
0.0012143
0.00121624
0.00121842
0.00122085
0.00122353
0.00122643
0.00122945
0.00123244
0.00123511
0.00123704
0.00123763
0.00123612
0.00119793
0.00119804
0.00119824
0.00119856
0.00119898
0.0011995
0.00120013
0.00120085
0.00120165
0.00120255
0.00120353
0.00120462
0.0012058
0.00120711
0.00120853
0.00121008
0.00121174
0.00121346
0.0012152
0.00121681
0.00121813
0.00121887
0.00121866
0.00121701
0.00121337
0.00119298
0.00119308
0.00119326
0.00119353
0.00119388
0.00119433
0.00119484
0.00119543
0.00119607
0.00119677
0.00119751
0.00119831
0.00119914
0.00120002
0.00120094
0.00120187
0.00120279
0.00120364
0.00120433
0.00120472
0.00120464
0.00120384
0.00120198
0.0011987
0.00119356
0.00118828
0.00118836
0.00118851
0.00118873
0.00118902
0.00118937
0.00118977
0.00119021
0.00119069
0.00119118
0.00119168
0.00119218
0.00119267
0.00119314
0.00119356
0.00119392
0.00119416
0.00119421
0.00119399
0.00119335
0.00119213
0.0011901
0.00118701
0.00118254
0.00117638
0.00118382
0.00118388
0.001184
0.00118416
0.00118438
0.00118464
0.00118492
0.00118522
0.00118552
0.00118581
0.00118606
0.00118628
0.00118643
0.00118651
0.00118647
0.0011863
0.00118593
0.00118528
0.00118428
0.00118279
0.00118065
0.00117768
0.00117366
0.00116836
0.00116152
0.0011796
0.00117965
0.00117973
0.00117984
0.00117998
0.00118015
0.00118031
0.00118047
0.0011806
0.00118068
0.0011807
0.00118064
0.00118048
0.00118019
0.00117974
0.00117908
0.00117817
0.00117693
0.00117527
0.00117308
0.00117022
0.00116654
0.00116184
0.00115596
0.0011487
0.00117562
0.00117566
0.0011757
0.00117576
0.00117583
0.0011759
0.00117595
0.00117597
0.00117593
0.00117582
0.00117562
0.0011753
0.00117484
0.00117422
0.00117339
0.00117232
0.00117095
0.0011692
0.00116701
0.00116426
0.00116084
0.00115662
0.00115145
0.00114519
0.00113769
0.00117189
0.00117191
0.00117192
0.00117193
0.00117193
0.00117191
0.00117184
0.00117173
0.00117153
0.00117124
0.00117083
0.00117027
0.00116955
0.00116863
0.00116747
0.00116604
0.00116427
0.00116212
0.00115949
0.0011563
0.00115246
0.00114785
0.00114236
0.00113588
0.00112829
0.00116841
0.00116842
0.0011684
0.00116835
0.00116828
0.00116817
0.001168
0.00116776
0.00116742
0.00116696
0.00116635
0.00116559
0.00116463
0.00116344
0.001162
0.00116026
0.00115817
0.00115568
0.00115271
0.00114919
0.00114504
0.00114016
0.00113448
0.00112789
0.00112031
0.00116518
0.00116517
0.00116512
0.00116503
0.00116489
0.0011647
0.00116443
0.00116407
0.00116359
0.00116298
0.0011622
0.00116125
0.00116008
0.00115867
0.00115699
0.00115499
0.00115264
0.00114988
0.00114665
0.00114288
0.00113852
0.00113348
0.00112769
0.00112108
0.00111359
0.0011622
0.00116217
0.00116209
0.00116196
0.00116176
0.00116149
0.00116113
0.00116066
0.00116006
0.00115931
0.00115838
0.00115726
0.00115592
0.00115432
0.00115244
0.00115023
0.00114767
0.0011447
0.00114128
0.00113735
0.00113284
0.00112771
0.0011219
0.00111535
0.00110801
0.00115946
0.00115942
0.00115931
0.00115913
0.00115888
0.00115854
0.0011581
0.00115753
0.00115682
0.00115595
0.0011549
0.00115363
0.00115214
0.00115038
0.00114834
0.00114597
0.00114325
0.00114013
0.00113657
0.00113253
0.00112795
0.0011228
0.00111702
0.00111058
0.00110343
0.00115696
0.00115691
0.00115678
0.00115656
0.00115626
0.00115586
0.00115534
0.00115469
0.00115389
0.00115291
0.00115174
0.00115036
0.00114874
0.00114685
0.00114468
0.00114219
0.00113935
0.00113613
0.00113249
0.00112839
0.00112379
0.00111866
0.00111296
0.00110667
0.00109974
0.00115471
0.00115464
0.00115449
0.00115424
0.00115389
0.00115344
0.00115285
0.00115212
0.00115124
0.00115017
0.00114891
0.00114743
0.00114571
0.00114372
0.00114145
0.00113887
0.00113596
0.00113267
0.00112899
0.00112487
0.0011203
0.00111523
0.00110965
0.00110353
0.00109685
0.00115268
0.00115261
0.00115243
0.00115216
0.00115177
0.00115127
0.00115062
0.00114983
0.00114888
0.00114774
0.0011464
0.00114484
0.00114304
0.00114098
0.00113864
0.001136
0.00113304
0.00112972
0.00112603
0.00112194
0.00111742
0.00111245
0.00110701
0.00110109
0.00109467
0.00115089
0.0011508
0.00115061
0.00115031
0.00114989
0.00114934
0.00114865
0.00114781
0.00114679
0.00114559
0.00114419
0.00114257
0.00114072
0.00113861
0.00113622
0.00113355
0.00113056
0.00112725
0.00112358
0.00111953
0.0011151
0.00111025
0.00110498
0.00109927
0.00109312
0.00114931
0.00114922
0.00114902
0.00114869
0.00114825
0.00114766
0.00114693
0.00114604
0.00114498
0.00114374
0.00114229
0.00114062
0.00113873
0.00113658
0.00113418
0.00113149
0.00112851
0.00112522
0.00112159
0.00111762
0.00111329
0.00110858
0.00110349
0.001098
0.00109212
0.00114796
0.00114786
0.00114764
0.0011473
0.00114683
0.00114622
0.00114545
0.00114453
0.00114343
0.00114215
0.00114067
0.00113897
0.00113705
0.0011349
0.00113248
0.00112981
0.00112685
0.0011236
0.00112004
0.00111616
0.00111194
0.00110739
0.00110249
0.00109723
0.00109163
0.00114681
0.0011467
0.00114648
0.00114612
0.00114563
0.00114499
0.00114421
0.00114326
0.00114213
0.00114082
0.00113932
0.00113761
0.00113568
0.00113352
0.00113112
0.00112847
0.00112555
0.00112236
0.00111887
0.0011151
0.00111102
0.00110663
0.00110192
0.0010969
0.00109157
0.00114586
0.00114575
0.00114551
0.00114515
0.00114464
0.00114399
0.00114318
0.00114221
0.00114107
0.00113974
0.00113823
0.00113651
0.00113459
0.00113244
0.00113006
0.00112745
0.00112458
0.00112146
0.00111807
0.00111441
0.00111047
0.00110625
0.00110174
0.00109696
0.00109189
0.0011451
0.00114499
0.00114475
0.00114437
0.00114385
0.00114319
0.00114237
0.00114138
0.00114023
0.0011389
0.00113738
0.00113567
0.00113376
0.00113163
0.00112929
0.00112673
0.00112393
0.00112088
0.0011176
0.00111406
0.00111027
0.00110622
0.00110191
0.00109736
0.00109256
0.00114452
0.00114441
0.00114416
0.00114378
0.00114325
0.00114258
0.00114175
0.00114076
0.0011396
0.00113827
0.00113676
0.00113507
0.00113318
0.00113108
0.00112879
0.00112628
0.00112355
0.0011206
0.00111742
0.00111401
0.00111037
0.0011065
0.00110239
0.00109806
0.00109352
0.00114411
0.001144
0.00114375
0.00114337
0.00114284
0.00114216
0.00114133
0.00114033
0.00113918
0.00113786
0.00113636
0.00113468
0.00113282
0.00113077
0.00112852
0.00112608
0.00112343
0.00112057
0.00111751
0.00111423
0.00111074
0.00110705
0.00110314
0.00109904
0.00109474
0.00114387
0.00114376
0.00114351
0.00114312
0.00114259
0.00114191
0.00114108
0.00114009
0.00113894
0.00113763
0.00113615
0.0011345
0.00113268
0.00113067
0.00112849
0.00112611
0.00112355
0.00112079
0.00111784
0.0011147
0.00111136
0.00110784
0.00110413
0.00110024
0.00109618
0.00114378
0.00114367
0.00114342
0.00114303
0.0011425
0.00114182
0.001141
0.00114002
0.00113888
0.00113759
0.00113613
0.00113452
0.00113273
0.00113078
0.00112865
0.00112635
0.00112387
0.00112122
0.00111839
0.00111538
0.0011122
0.00110885
0.00110533
0.00110165
0.00109782
0.00114384
0.00114372
0.00114348
0.00114309
0.00114256
0.00114189
0.00114107
0.0011401
0.00113898
0.00113771
0.00113629
0.0011347
0.00113296
0.00113106
0.001129
0.00112678
0.00112439
0.00112184
0.00111913
0.00111626
0.00111323
0.00111004
0.00110671
0.00110324
0.00109963
0.00114403
0.00114392
0.00114367
0.00114329
0.00114277
0.0011421
0.00114129
0.00114034
0.00113924
0.00113799
0.00113659
0.00113505
0.00113336
0.00113152
0.00112952
0.00112738
0.00112509
0.00112264
0.00112005
0.00111731
0.00111442
0.0011114
0.00110825
0.00110497
0.00110158
0.00114434
0.00114423
0.00114399
0.00114361
0.0011431
0.00114244
0.00114164
0.00114071
0.00113963
0.00113841
0.00113705
0.00113554
0.0011339
0.00113212
0.0011302
0.00112813
0.00112593
0.00112359
0.00112111
0.0011185
0.00111577
0.0011129
0.00110992
0.00110683
0.00110364
0.00114477
0.00114466
0.00114443
0.00114405
0.00114355
0.0011429
0.00114212
0.0011412
0.00114014
0.00113895
0.00113763
0.00113617
0.00113458
0.00113286
0.00113101
0.00112903
0.00112691
0.00112468
0.00112232
0.00111983
0.00111723
0.00111452
0.00111171
0.0011088
0.0011058
0.00114531
0.0011452
0.00114497
0.0011446
0.0011441
0.00114347
0.00114271
0.00114181
0.00114078
0.00113962
0.00113833
0.00113692
0.00113538
0.00113372
0.00113194
0.00113004
0.00112802
0.00112588
0.00112363
0.00112127
0.00111881
0.00111625
0.0011136
0.00111086
0.00110804
0.00114595
0.00114584
0.00114561
0.00114525
0.00114476
0.00114414
0.00114339
0.00114252
0.00114151
0.00114039
0.00113914
0.00113777
0.00113629
0.00113469
0.00113298
0.00113116
0.00112923
0.00112719
0.00112505
0.00112281
0.00112048
0.00111806
0.00111556
0.00111299
0.00111035
0.00114667
0.00114657
0.00114634
0.00114599
0.00114551
0.00114491
0.00114418
0.00114332
0.00114235
0.00114125
0.00114005
0.00113873
0.0011373
0.00113576
0.00113412
0.00113238
0.00113053
0.00112859
0.00112656
0.00112444
0.00112223
0.00111995
0.00111759
0.00111517
0.0011127
0.00114747
0.00114737
0.00114715
0.00114681
0.00114635
0.00114576
0.00114504
0.00114421
0.00114326
0.0011422
0.00114104
0.00113976
0.00113839
0.00113691
0.00113534
0.00113367
0.00113191
0.00113007
0.00112814
0.00112613
0.00112404
0.00112189
0.00111967
0.0011174
0.00111508
0.00114835
0.00114825
0.00114804
0.00114771
0.00114725
0.00114668
0.00114598
0.00114517
0.00114426
0.00114323
0.0011421
0.00114087
0.00113955
0.00113814
0.00113663
0.00113504
0.00113336
0.00113161
0.00112978
0.00112787
0.00112591
0.00112388
0.00112179
0.00111966
0.00111749
0.00114929
0.00114919
0.00114899
0.00114866
0.00114822
0.00114766
0.00114699
0.0011462
0.00114531
0.00114432
0.00114323
0.00114205
0.00114078
0.00113942
0.00113798
0.00113647
0.00113487
0.0011332
0.00113147
0.00112967
0.00112781
0.0011259
0.00112394
0.00112194
0.00111991
0.00115028
0.00115019
0.00114999
0.00114968
0.00114925
0.0011487
0.00114805
0.00114729
0.00114643
0.00114547
0.00114442
0.00114329
0.00114207
0.00114077
0.00113939
0.00113794
0.00113642
0.00113484
0.00113319
0.00113149
0.00112974
0.00112794
0.0011261
0.00112423
0.00112233
0.00115133
0.00115124
0.00115105
0.00115074
0.00115032
0.0011498
0.00114916
0.00114843
0.00114759
0.00114667
0.00114566
0.00114457
0.0011434
0.00114215
0.00114084
0.00113946
0.00113801
0.00113651
0.00113495
0.00113334
0.00113169
0.00113
0.00112827
0.00112652
0.00112474
0.00115241
0.00115233
0.00115214
0.00115185
0.00115144
0.00115093
0.00115032
0.00114961
0.0011488
0.00114791
0.00114694
0.00114589
0.00114476
0.00114357
0.00114232
0.001141
0.00113963
0.0011382
0.00113673
0.00113521
0.00113365
0.00113206
0.00113044
0.0011288
0.00112714
0.00115354
0.00115346
0.00115328
0.00115299
0.0011526
0.0011521
0.00115151
0.00115082
0.00115004
0.00114918
0.00114824
0.00114724
0.00114616
0.00114502
0.00114382
0.00114257
0.00114127
0.00113992
0.00113852
0.00113709
0.00113562
0.00113412
0.0011326
0.00113107
0.00112952
0.00115469
0.00115461
0.00115444
0.00115416
0.00115378
0.0011533
0.00115272
0.00115206
0.00115131
0.00115048
0.00114958
0.00114861
0.00114758
0.00114649
0.00114535
0.00114416
0.00114292
0.00114164
0.00114032
0.00113896
0.00113758
0.00113618
0.00113475
0.00113331
0.00113187
0.00115586
0.00115579
0.00115562
0.00115535
0.00115498
0.00115452
0.00115396
0.00115332
0.0011526
0.0011518
0.00115093
0.00115
0.00114901
0.00114797
0.00114688
0.00114575
0.00114457
0.00114336
0.00114211
0.00114083
0.00113953
0.00113821
0.00113688
0.00113553
0.00113418
0.00115705
0.00115698
0.00115682
0.00115656
0.00115621
0.00115576
0.00115522
0.0011546
0.0011539
0.00115313
0.0011523
0.0011514
0.00115046
0.00114946
0.00114842
0.00114734
0.00114623
0.00114508
0.0011439
0.00114269
0.00114147
0.00114023
0.00113897
0.00113772
0.00113646
0.00115825
0.00115818
0.00115803
0.00115778
0.00115744
0.00115701
0.00115649
0.00115589
0.00115521
0.00115447
0.00115367
0.00115281
0.00115191
0.00115096
0.00114996
0.00114894
0.00114787
0.00114678
0.00114567
0.00114453
0.00114338
0.00114221
0.00114104
0.00113986
0.00113869
0.00115945
0.00115939
0.00115925
0.00115901
0.00115868
0.00115826
0.00115776
0.00115718
0.00115653
0.00115581
0.00115504
0.00115422
0.00115335
0.00115244
0.0011515
0.00115052
0.00114951
0.00114848
0.00114742
0.00114635
0.00114526
0.00114417
0.00114307
0.00114197
0.00114087
0.00116066
0.00116061
0.00116047
0.00116024
0.00115992
0.00115951
0.00115903
0.00115847
0.00115784
0.00115715
0.00115641
0.00115562
0.00115479
0.00115392
0.00115302
0.00115208
0.00115113
0.00115015
0.00114915
0.00114814
0.00114711
0.00114609
0.00114506
0.00114403
0.00114301
0.00116186
0.00116181
0.00116168
0.00116146
0.00116115
0.00116076
0.00116029
0.00115975
0.00115915
0.00115848
0.00115777
0.00115701
0.00115621
0.00115538
0.00115452
0.00115363
0.00115272
0.00115179
0.00115085
0.00114989
0.00114893
0.00114796
0.001147
0.00114604
0.00114509
0.00116306
0.00116301
0.00116289
0.00116268
0.00116238
0.001162
0.00116155
0.00116103
0.00116044
0.0011598
0.00115912
0.00115839
0.00115762
0.00115683
0.001156
0.00115516
0.00115429
0.00115341
0.00115252
0.00115161
0.00115071
0.0011498
0.00114889
0.001148
0.00114711
0.00116424
0.0011642
0.00116408
0.00116388
0.0011636
0.00116323
0.00116279
0.00116229
0.00116173
0.00116111
0.00116045
0.00115975
0.00115901
0.00115825
0.00115746
0.00115665
0.00115583
0.00115499
0.00115415
0.00115329
0.00115244
0.00115159
0.00115074
0.0011499
0.00114907
0.00116541
0.00116537
0.00116526
0.00116507
0.0011648
0.00116445
0.00116402
0.00116354
0.00116299
0.00116239
0.00116176
0.00116108
0.00116038
0.00115964
0.00115889
0.00115812
0.00115733
0.00115654
0.00115574
0.00115493
0.00115412
0.00115332
0.00115253
0.00115174
0.00115097
0.00116656
0.00116653
0.00116643
0.00116624
0.00116598
0.00116564
0.00116523
0.00116476
0.00116423
0.00116366
0.00116304
0.00116239
0.00116171
0.00116101
0.00116029
0.00115955
0.0011588
0.00115805
0.00115728
0.00115652
0.00115576
0.001155
0.00115426
0.00115352
0.0011528
0.00116768
0.00116766
0.00116757
0.00116739
0.00116714
0.00116681
0.00116642
0.00116596
0.00116545
0.00116489
0.0011643
0.00116367
0.00116302
0.00116234
0.00116165
0.00116094
0.00116023
0.00115951
0.00115879
0.00115806
0.00115734
0.00115663
0.00115593
0.00115524
0.00115457
0.00116878
0.00116877
0.00116868
0.00116852
0.00116827
0.00116796
0.00116758
0.00116713
0.00116664
0.0011661
0.00116552
0.00116492
0.00116429
0.00116364
0.00116297
0.0011623
0.00116161
0.00116093
0.00116024
0.00115955
0.00115887
0.0011582
0.00115754
0.0011569
0.00115627
0.00116985
0.00116984
0.00116977
0.00116961
0.00116938
0.00116908
0.00116871
0.00116828
0.0011678
0.00116728
0.00116672
0.00116613
0.00116552
0.00116489
0.00116425
0.0011636
0.00116295
0.00116229
0.00116164
0.00116099
0.00116034
0.00115971
0.00115909
0.00115848
0.0011579
0.0011709
0.00117089
0.00117083
0.00117068
0.00117046
0.00117017
0.00116981
0.0011694
0.00116893
0.00116842
0.00116788
0.00116731
0.00116672
0.00116611
0.00116549
0.00116487
0.00116424
0.00116361
0.00116298
0.00116236
0.00116175
0.00116115
0.00116057
0.00116
0.00115945
0.0011719
0.00117191
0.00117186
0.00117172
0.00117151
0.00117123
0.00117088
0.00117048
0.00117002
0.00116953
0.001169
0.00116844
0.00116787
0.00116728
0.00116668
0.00116608
0.00116548
0.00116487
0.00116427
0.00116368
0.0011631
0.00116253
0.00116198
0.00116145
0.00116093
0.00117288
0.0011729
0.00117286
0.00117273
0.00117253
0.00117226
0.00117192
0.00117153
0.00117108
0.0011706
0.00117008
0.00116954
0.00116898
0.00116841
0.00116783
0.00116725
0.00116666
0.00116608
0.00116551
0.00116494
0.00116439
0.00116385
0.00116333
0.00116282
0.00116234
0.00117382
0.00117385
0.00117383
0.00117371
0.00117352
0.00117326
0.00117293
0.00117254
0.00117211
0.00117163
0.00117112
0.00117059
0.00117005
0.00116949
0.00116892
0.00116836
0.00116779
0.00116723
0.00116668
0.00116614
0.00116561
0.00116509
0.0011646
0.00116412
0.00116367
0.00117473
0.00117478
0.00117476
0.00117466
0.00117448
0.00117422
0.0011739
0.00117352
0.00117309
0.00117262
0.00117212
0.0011716
0.00117106
0.00117052
0.00116996
0.00116941
0.00116886
0.00116832
0.00116779
0.00116726
0.00116676
0.00116627
0.0011658
0.00116535
0.00116493
0.0011756
0.00117566
0.00117567
0.00117558
0.00117541
0.00117516
0.00117484
0.00117447
0.00117404
0.00117357
0.00117308
0.00117256
0.00117203
0.00117149
0.00117095
0.00117041
0.00116987
0.00116935
0.00116883
0.00116833
0.00116784
0.00116737
0.00116692
0.0011665
0.0011661
0.00117644
0.00117652
0.00117655
0.00117647
0.00117631
0.00117607
0.00117575
0.00117537
0.00117495
0.00117448
0.00117399
0.00117347
0.00117295
0.00117241
0.00117188
0.00117135
0.00117082
0.00117031
0.00116981
0.00116932
0.00116885
0.0011684
0.00116797
0.00116757
0.00116719
0.00117725
0.00117736
0.0011774
0.00117734
0.00117719
0.00117694
0.00117663
0.00117625
0.00117582
0.00117535
0.00117485
0.00117434
0.00117381
0.00117328
0.00117275
0.00117223
0.00117171
0.00117121
0.00117072
0.00117024
0.00116979
0.00116936
0.00116895
0.00116856
0.0011682
0.00117803
0.00117817
0.00117824
0.00117819
0.00117804
0.0011778
0.00117748
0.00117709
0.00117665
0.00117617
0.00117567
0.00117515
0.00117462
0.00117409
0.00117356
0.00117304
0.00117253
0.00117203
0.00117155
0.00117109
0.00117065
0.00117023
0.00116984
0.00116947
0.00116913
0.0011788
0.00117897
0.00117907
0.00117904
0.00117888
0.00117863
0.0011783
0.00117789
0.00117744
0.00117695
0.00117643
0.0011759
0.00117537
0.00117483
0.0011743
0.00117379
0.00117328
0.00117279
0.00117232
0.00117187
0.00117144
0.00117103
0.00117065
0.0011703
0.00116998
0.00117955
0.00117978
0.00117991
0.00117988
0.00117972
0.00117945
0.00117909
0.00117866
0.00117819
0.00117768
0.00117714
0.0011766
0.00117606
0.00117551
0.00117498
0.00117446
0.00117396
0.00117347
0.00117301
0.00117257
0.00117215
0.00117175
0.00117139
0.00117105
0.00117074
0.00118033
0.00118061
0.00118077
0.00118074
0.00118056
0.00118025
0.00117986
0.0011794
0.00117889
0.00117835
0.0011778
0.00117724
0.00117668
0.00117613
0.00117559
0.00117507
0.00117457
0.00117408
0.00117362
0.00117319
0.00117278
0.00117239
0.00117203
0.00117171
0.00117141
0.00118115
0.00118149
0.00118169
0.00118164
0.00118141
0.00118105
0.00118061
0.0011801
0.00117954
0.00117897
0.00117839
0.0011778
0.00117723
0.00117667
0.00117613
0.0011756
0.0011751
0.00117462
0.00117416
0.00117373
0.00117332
0.00117295
0.0011726
0.00117228
0.001172
0.00118208
0.00118249
0.0011827
0.0011826
0.00118229
0.00118185
0.00118132
0.00118075
0.00118014
0.00117952
0.00117891
0.0011783
0.00117771
0.00117713
0.00117658
0.00117605
0.00117555
0.00117507
0.00117462
0.00117419
0.00117379
0.00117342
0.00117308
0.00117277
0.0011725
0.00118323
0.00118368
0.00118386
0.00118364
0.0011832
0.00118263
0.001182
0.00118134
0.00118067
0.00118
0.00117935
0.00117872
0.00117811
0.00117752
0.00117696
0.00117643
0.00117592
0.00117544
0.00117499
0.00117457
0.00117418
0.00117381
0.00117348
0.00117318
0.00117291
0.00118481
0.0011852
0.00118523
0.0011848
0.00118414
0.00118339
0.00118263
0.00118186
0.00118111
0.00118039
0.0011797
0.00117904
0.00117842
0.00117782
0.00117725
0.00117672
0.00117621
0.00117573
0.00117529
0.00117487
0.00117448
0.00117412
0.00117379
0.0011735
0.00117324
0.00118717
0.00118724
0.00118691
0.00118607
0.00118508
0.00118409
0.00118316
0.00118228
0.00118145
0.00118068
0.00117996
0.00117928
0.00117863
0.00117803
0.00117746
0.00117692
0.00117642
0.00117594
0.0011755
0.00117508
0.0011747
0.00117434
0.00117402
0.00117373
0.00117348
0.00119125
0.00119022
0.00118892
0.0011874
0.00118594
0.00118466
0.00118354
0.00118254
0.00118165
0.00118084
0.00118009
0.0011794
0.00117875
0.00117815
0.00117758
0.00117704
0.00117654
0.00117607
0.00117563
0.00117522
0.00117484
0.00117449
0.00117417
0.00117388
0.00117363
0.00120023
0.00119507
0.00119122
0.00118856
0.00118654
0.00118495
0.00118367
0.0011826
0.00118167
0.00118085
0.0011801
0.00117941
0.00117876
0.00117816
0.0011776
0.00117707
0.00117657
0.00117611
0.00117567
0.00117527
0.00117489
0.00117454
0.00117423
0.00117395
0.0011737
0.00121793
0.00120159
0.00119332
0.00118932
0.00118677
0.00118495
0.00118358
0.00118248
0.00118156
0.00118075
0.00118001
0.00117933
0.0011787
0.00117812
0.00117756
0.00117704
0.00117655
0.00117609
0.00117566
0.00117526
0.00117489
0.00117454
0.00117423
0.00117395
0.0011737
-0.144135
-0.13978
-0.132569
-0.122882
-0.11169
-0.0997958
-0.0874993
-0.0753292
-0.0637695
-0.0531244
-0.0435819
-0.0353248
-0.0283845
-0.0227058
-0.0181567
-0.0145809
-0.0118242
-0.00972781
-0.00814723
-0.00695381
-0.00605697
-0.00539228
-0.00491727
-0.00459019
-0.00439354
-0.125204
-0.11917
-0.109461
-0.0970864
-0.0842092
-0.0718502
-0.0602096
-0.0495183
-0.0399765
-0.0317301
-0.0248867
-0.0194395
-0.0152689
-0.0121717
-0.00990888
-0.00825617
-0.00702685
-0.00609245
-0.00539624
-0.00485734
-0.00444458
-0.00413293
-0.00390765
-0.00375423
-0.00366182
-0.0919583
-0.0855346
-0.0756915
-0.0639723
-0.0527415
-0.042798
-0.034197
-0.0268948
-0.0208677
-0.0160912
-0.012447
-0.00971031
-0.0076959
-0.00626581
-0.00527012
-0.0045787
-0.00409312
-0.00374602
-0.0034933
-0.00331052
-0.00317213
-0.00306979
-0.00299808
-0.00295416
-0.00293244
-0.0638206
-0.0568401
-0.047523
-0.0377078
-0.029248
-0.022393
-0.0171265
-0.0130799
-0.0100432
-0.00785135
-0.0062872
-0.00517438
-0.0043801
-0.00380159
-0.00337435
-0.00306074
-0.0028331
-0.00267022
-0.00255345
-0.00247137
-0.00241129
-0.00236867
-0.00234518
-0.00234295
-0.00234725
-0.0412497
-0.0351198
-0.0277198
-0.0207386
-0.0151534
-0.0109905
-0.0081542
-0.00625188
-0.00498984
-0.00417976
-0.00366888
-0.00330764
-0.00302118
-0.00277684
-0.00256272
-0.00237985
-0.00222976
-0.00211136
-0.00202141
-0.00195502
-0.00190808
-0.00187959
-0.00187018
-0.00187909
-0.00189221
-0.025737
-0.020922
-0.0152334
-0.0103595
-0.00686185
-0.00454649
-0.00316435
-0.00252997
-0.00225492
-0.00215839
-0.00213929
-0.00213521
-0.00211218
-0.0020577
-0.00197862
-0.00188715
-0.00179541
-0.00171275
-0.00164416
-0.00159113
-0.00155334
-0.00153055
-0.00152387
-0.00153205
-0.00154525
-0.0143968
-0.0110585
-0.00707494
-0.00378697
-0.00170327
-0.000615307
-0.000230902
-0.000271776
-0.000513794
-0.000791792
-0.00106949
-0.00127971
-0.0014166
-0.0014883
-0.00150647
-0.00148714
-0.0014472
-0.00139982
-0.00135397
-0.00131508
-0.00128594
-0.00126768
-0.00126117
-0.00126587
-0.001276
-0.00677807
-0.00453484
-0.00188818
0.00017399
0.00126784
0.00158894
0.00142223