/*--------------------------------*- C++ -*----------------------------------*\
  =========                 |
  \\      /  F ield         | OpenFOAM: The Open Source CFD Toolbox
   \\    /   O peration     | Website:  https://openfoam.org
    \\  /    A nd           | Version:  13
     \\/     M anipulation  |
\*---------------------------------------------------------------------------*/
FoamFile
{
    format      ascii;
    class       surfaceScalarField;
    location    "22";
    object      phi;
}
// * * * * * * * * * * * * * * * * * * * * * * * * * * * * * * * * * * * * * //

dimensions      [0 3 -1 0 0 0 0];

internalField   nonuniform List<scalar> 
12590
(
6.90683e-09
-1.63545e-08
8.42847e-08
-8.49513e-08
1.96852e-07
-1.15966e-07
3.14786e-07
-1.22232e-07
4.34143e-07
-1.20971e-07
5.50764e-07
-1.19373e-07
6.68997e-07
-1.19236e-07
7.86947e-07
-1.1973e-07
9.04787e-07
-1.18479e-07
1.0184e-06
-1.14512e-07
1.1243e-06
-1.06609e-07
1.21796e-06
-9.386e-08
1.29135e-06
-7.41882e-08
1.33903e-06
-4.76623e-08
1.35567e-06
-1.7617e-08
1.34024e-06
1.52748e-08
1.29016e-06
4.89925e-08
1.20416e-06
8.53655e-08
1.08418e-06
1.18817e-07
9.31868e-07
1.51006e-07
7.4803e-07
1.8245e-07
5.37454e-07
2.08598e-07
3.16335e-07
2.18583e-07
1.22382e-07
1.89081e-07
1.20588e-07
4.65889e-08
-7.00949e-08
1.38766e-07
-1.82086e-07
2.34081e-07
-2.1444e-07
3.27012e-07
-2.18288e-07
4.24299e-07
-2.20402e-07
5.2906e-07
-2.26362e-07
6.42524e-07
-2.34001e-07
7.61766e-07
-2.40278e-07
8.84703e-07
-2.42221e-07
1.00736e-06
-2.37754e-07
1.12465e-06
-2.24332e-07
1.23001e-06
-1.99493e-07
1.31581e-06
-1.6052e-07
1.37615e-06
-1.08281e-07
1.40386e-06
-4.60976e-08
1.39424e-06
2.43718e-08
1.34549e-06
9.68471e-08
1.2639e-06
1.6612e-07
1.14904e-06
2.32563e-07
1.00339e-06
2.95447e-07
8.32231e-07
3.52242e-07
6.41323e-07
3.9811e-07
4.33109e-07
4.24717e-07
2.12133e-07
4.06882e-07
3.31409e-07
6.72293e-08
-1.43116e-07
1.35138e-07
-2.54211e-07
1.94188e-07
-2.76737e-07
2.58441e-07
-2.85892e-07
3.36111e-07
-3.00338e-07
4.2768e-07
-3.20153e-07
5.32633e-07
-3.40418e-07
6.48858e-07
-3.5761e-07
7.74349e-07
-3.68304e-07
9.04356e-07
-3.68027e-07
1.03057e-06
-3.50859e-07
1.14312e-06
-3.12158e-07
1.22915e-06
-2.46948e-07
1.2797e-06
-1.59343e-07
1.2906e-06
-5.77158e-08
1.26637e-06
4.78571e-08
1.21126e-06
1.50992e-07
1.12685e-06
2.49538e-07
1.01651e-06
3.41715e-07
8.82965e-07
4.27576e-07
7.28542e-07
5.05248e-07
5.56804e-07
5.68201e-07
3.71785e-07
6.07815e-07
1.78793e-07
5.96952e-07
5.09015e-07
5.61513e-08
-2.04506e-07
8.71144e-08
-2.89553e-07
1.1402e-07
-3.07695e-07
1.53714e-07
-3.28885e-07
2.09061e-07
-3.58897e-07
2.80473e-07
-3.9375e-07
3.68203e-07
-4.29901e-07
4.73565e-07
-4.6393e-07
5.94963e-07
-4.90141e-07
7.25068e-07
-4.9821e-07
8.54379e-07
-4.80233e-07
9.68296e-07
-4.25867e-07
1.04129e-06
-3.20606e-07
1.06425e-06
-1.8238e-07
1.04227e-06
-3.71174e-08
9.952e-07
9.41745e-08
9.28155e-07
2.16622e-07
8.43999e-07
3.32575e-07
7.45856e-07
4.38305e-07
6.35712e-07
5.36179e-07
5.12769e-07
6.26501e-07
3.78133e-07
7.01153e-07
2.37361e-07
7.46414e-07
8.97132e-08
7.41654e-07
5.9744e-07
2.06488e-08
-2.3013e-07
1.26212e-08
-2.8664e-07
7.31368e-09
-3.06362e-07
1.20382e-08
-3.38174e-07
3.29517e-08
-3.82861e-07
7.16112e-08
-4.35247e-07
1.30811e-07
-4.91137e-07
2.11867e-07
-5.4589e-07
3.12144e-07
-5.90928e-07
4.21371e-07
-6.07481e-07
5.36137e-07
-5.945e-07
6.35269e-07
-5.25278e-07
6.89947e-07
-3.74833e-07
6.97435e-07
-1.91901e-07
6.58324e-07
1.9459e-10
6.02735e-07
1.46791e-07
5.43243e-07
2.74389e-07
4.78354e-07
3.95026e-07
4.10352e-07
5.04351e-07
3.37082e-07
6.0704e-07
2.5618e-07
7.0533e-07
1.67235e-07
7.87966e-07
7.30807e-08
8.38302e-07
-6.27568e-09
8.17686e-07
5.89727e-07
-3.47131e-08
-2.00023e-07
-8.9209e-08
-2.36582e-07
-1.38285e-07
-2.60308e-07
-1.78171e-07
-3.01441e-07
-2.03649e-07
-3.5936e-07
-2.11166e-07
-4.30091e-07
-1.94902e-07
-5.086e-07
-1.539e-07
-5.87995e-07
-8.99119e-08
-6.55298e-07
-1.26449e-08
-6.84373e-07
6.5855e-08
-6.73067e-07
1.2408e-07
-5.82732e-07
1.24762e-07
-3.7735e-07
6.92665e-08
-1.393e-07
5.71067e-08
3.54467e-09
8.08783e-08
1.18712e-07
8.77297e-08
2.62867e-07
8.18096e-08
3.97899e-07
6.69066e-08
5.15855e-07
4.33156e-08
6.27718e-07
9.79616e-09
7.36271e-07
-3.23301e-08
8.2789e-07
-7.09376e-08
8.74533e-07
-8.05394e-08
8.23938e-07
5.07669e-07
-9.0105e-08
-1.14966e-07
-1.91413e-07
-1.39036e-07
-2.85635e-07
-1.6867e-07
-3.70489e-07
-2.18925e-07
-4.43334e-07
-2.88076e-07
-5.02291e-07
-3.7259e-07
-5.44358e-07
-4.67537e-07
-5.67284e-07
-5.6558e-07
-5.68936e-07
-6.53935e-07
-5.44194e-07
-7.0895e-07
-5.02374e-07
-7.14798e-07
-4.43498e-07
-6.41479e-07
-3.89515e-07
-4.31939e-07
-3.56665e-07
-1.73599e-07
-3.47173e-07
-8.63006e-09
-3.19693e-07
8.89373e-08
-2.74979e-07
2.15189e-07
-2.33749e-07
3.54318e-07
-2.04585e-07
4.83894e-07
-1.88161e-07
6.08961e-07
-1.83896e-07
7.29767e-07
-1.85647e-07
8.27885e-07
-1.76527e-07
8.63278e-07
-1.38676e-07
7.82854e-07
3.67143e-07
-1.36196e-07
1.60507e-08
-2.83863e-07
4.8955e-09
-4.20414e-07
-3.44649e-08
-5.46667e-07
-9.46334e-08
-6.62724e-07
-1.73244e-07
-7.6825e-07
-2.68167e-07
-8.61274e-07
-3.75229e-07
-9.39359e-07
-4.87822e-07
-9.9849e-07
-5.94963e-07
-1.02821e-06
-6.791e-07
-1.02477e-06
-7.18253e-07
-9.76423e-07
-6.89754e-07
-8.61485e-07
-5.47229e-07
-7.23951e-07
-3.11915e-07
-6.48421e-07
-8.54266e-08
-6.09075e-07
4.7869e-08
-5.41191e-07
1.45255e-07
-4.64144e-07
2.75254e-07
-4.00752e-07
4.1832e-07
-3.53063e-07
5.59229e-07
-3.15568e-07
6.90532e-07
-2.81655e-07
7.92316e-07
-2.39484e-07
8.19285e-07
-1.53165e-07
6.92821e-07
2.1217e-07
-1.77878e-07
1.89948e-07
-3.58284e-07
1.82545e-07
-5.25597e-07
1.30867e-07
-6.82536e-07
6.06502e-08
-8.31667e-07
-2.53075e-08
-9.73304e-07
-1.27465e-07
-1.10568e-06
-2.43379e-07
-1.2271e-06
-3.66711e-07
-1.33357e-06
-4.88627e-07
-1.41582e-06
-5.96789e-07
-1.46015e-06
-6.73951e-07
-1.44774e-06
-7.02115e-07
-1.33718e-06
-6.581e-07
-1.12938e-06
-5.2002e-07
-9.06991e-07
-3.08669e-07
-7.73005e-07
-8.72074e-08
-7.02167e-07
7.27563e-08
-6.18377e-07
1.8977e-07
-5.25135e-07
3.23131e-07
-4.42749e-07
4.75118e-07
-3.74333e-07
6.20347e-07
-3.11682e-07
7.28286e-07
-2.42457e-07
7.47913e-07
-1.26262e-07
5.7365e-07
8.1944e-08
-1.97762e-07
3.85251e-07
-3.94263e-07
3.76869e-07
-5.81155e-07
3.16255e-07
-7.5934e-07
2.37344e-07
-9.28641e-07
1.42949e-07
-1.0903e-06
3.33388e-08
-1.24477e-06
-8.95638e-08
-1.39088e-06
-2.20876e-07
-1.52697e-06
-3.52648e-07
-1.64687e-06
-4.76937e-07
-1.73722e-06
-5.83682e-07
-1.7836e-06
-6.55798e-07
-1.75755e-06
-6.84409e-07
-1.61685e-06
-6.61042e-07
-1.34908e-06
-5.77034e-07
-1.03287e-06
-4.04142e-07
-7.94929e-07
-1.66507e-07
-6.60923e-07
5.42016e-08
-5.66904e-07
2.27263e-07
-4.60371e-07
3.66625e-07
-3.58208e-07
5.16385e-07
-2.70623e-07
6.38703e-07
-1.84361e-07
6.60507e-07
-8.60747e-08
4.68206e-07
-8.60699e-09
-1.94418e-07
5.77676e-07
-3.87741e-07
5.68617e-07
-5.77932e-07
5.05118e-07
-7.62843e-07
4.21011e-07
-9.39514e-07
3.1859e-07
-1.10678e-06
1.99696e-07
-1.26508e-06
6.81546e-08
-1.41561e-06
-7.07738e-08
-1.55902e-06
-2.09566e-07
-1.69473e-06
-3.41314e-07
-1.81669e-06
-4.61897e-07
-1.90765e-06
-5.6508e-07
-1.94816e-06
-6.44297e-07
-1.92345e-06
-6.86247e-07
-1.79618e-06
-7.0497e-07
-1.52915e-06
-6.7191e-07
-1.14087e-06
-5.55822e-07
-7.6517e-07
-3.2285e-07
-5.14254e-07
-2.57487e-08
-3.82192e-07
2.32039e-07
-2.77066e-07
4.08015e-07
-1.72413e-07
5.31708e-07
-8.63108e-08
5.69344e-07
-2.39025e-08
4.00405e-07
-4.26626e-08
-1.6807e-07
7.44261e-07
-3.46568e-07
7.45624e-07
-5.25072e-07
6.82435e-07
-7.00605e-07
5.95348e-07
-8.69734e-07
4.86755e-07
-1.02932e-06
3.58412e-07
-1.17768e-06
2.15613e-07
-1.31705e-06
6.80071e-08
-1.45129e-06
-7.5749e-08
-1.58371e-06
-2.09353e-07
-1.71342e-06
-3.32673e-07
-1.83195e-06
-4.47016e-07
-1.92547e-06
-5.51474e-07
-1.96919e-06
-6.43359e-07
-1.95477e-06
-7.20349e-07
-1.85314e-06
-7.7456e-07
-1.60911e-06
-8.00943e-07
-1.19945e-06
-7.33766e-07
-7.00587e-07
-5.26321e-07
-3.09308e-07
-1.62448e-07
-1.24613e-07
2.1861e-07
-4.4157e-08
4.44845e-07
2.17959e-08
5.02686e-07
4.06664e-08
3.69419e-07
-6.03406e-09
-1.29379e-07
8.72174e-07
-2.82594e-07
8.9759e-07
-4.38351e-07
8.37015e-07
-5.92568e-07
7.48447e-07
-7.41625e-07
6.34731e-07
-8.82394e-07
4.98117e-07
-1.01289e-06
3.45268e-07
-1.13503e-06
1.8921e-07
-1.25498e-06
4.3129e-08
-1.37663e-06
-8.8452e-08
-1.49883e-06
-2.11351e-07
-1.61485e-06
-3.31995e-07
-1.7158e-06
-4.51682e-07
-1.79175e-06
-5.68673e-07
-1.8321e-06
-6.81406e-07
-1.82146e-06
-7.86575e-07
-1.74547e-06
-8.78378e-07
-1.53896e-06
-9.41569e-07
-1.14698e-06
-9.19719e-07
-5.91207e-07
-7.20502e-07
-1.00446e-07
-2.76802e-07
9.48943e-08
2.4552e-07
1.23584e-07
4.65356e-07
9.318e-08
3.96802e-07
8.08249e-08
-8.41917e-08
9.55138e-07
-2.05281e-07
1.01744e-06
-3.31025e-07
9.61621e-07
-4.57822e-07
8.74106e-07
-5.82859e-07
7.58684e-07
-7.04253e-07
6.18403e-07
-8.21342e-07
4.6105e-07
-9.35874e-07
3.02454e-07
-1.05149e-06
1.57695e-07
-1.1704e-06
2.8944e-08
-1.28877e-06
-9.43092e-08
-1.39918e-06
-2.23162e-07
-1.49323e-06
-3.59191e-07
-1.56411e-06
-4.99586e-07
-1.6074e-06
-6.39803e-07
-1.61967e-06
-7.76092e-07
-1.59493e-06
-9.04793e-07
-1.51941e-06
-1.01857e-06
-1.339e-06
-1.10153e-06
-9.73681e-07
-1.08725e-06
-4.14339e-07
-8.38975e-07
6.08607e-08
-2.35647e-07
1.52881e-07
3.73008e-07
1.05055e-07
4.35226e-07
1.81757e-07
-3.75521e-08
9.9186e-07
-1.1928e-07
1.09817e-06
-2.09804e-07
1.05125e-06
-3.05104e-07
9.68312e-07
-4.03012e-07
8.55396e-07
-5.03241e-07
7.17311e-07
-6.0616e-07
5.62661e-07
-7.13336e-07
4.08373e-07
-8.27474e-07
2.7011e-07
-9.46087e-07
1.4623e-07
-1.06357e-06
2.12083e-08
-1.16977e-06
-1.19072e-07
-1.2591e-06
-2.72198e-07
-1.3251e-06
-4.35685e-07
-1.36507e-06
-6.01963e-07
-1.37904e-06
-7.64017e-07
-1.36854e-06
-9.17113e-07
-1.33047e-06
-1.05802e-06
-1.25187e-06
-1.18141e-06
-1.08339e-06
-1.25667e-06
-7.27766e-07
-1.19563e-06
-1.70465e-07
-7.94103e-07
1.13307e-07
8.05643e-08
8.32258e-08
4.59304e-07
2.61522e-07
1.21949e-08
9.78093e-07
-2.52969e-08
1.1348e-06
-7.68845e-08
1.10145e-06
-1.37931e-07
1.02831e-06
-2.06088e-07
9.21733e-07
-2.80486e-07
7.91037e-07
-3.63508e-07
6.43417e-07
-4.55151e-07
4.99666e-07
-5.57567e-07
3.69849e-07
-6.67076e-07
2.55623e-07
-7.79624e-07
1.29352e-07
-8.79979e-07
-2.0582e-08
-9.66798e-07
-1.89811e-07
-1.03652e-06
-3.68449e-07
-1.08457e-06
-5.56793e-07
-1.10875e-06
-7.42042e-07
-1.11066e-06
-9.16765e-07
-1.09503e-06
-1.07528e-06
-1.06274e-06
-1.21431e-06
-9.97148e-07
-1.32267e-06
-8.37242e-07
-1.35638e-06
-4.69058e-07
-1.1634e-06
-4.13757e-08
-3.49365e-07
3.02678e-08
3.81763e-07
2.94093e-07
6.97756e-08
9.0752e-07
7.42907e-08
1.12825e-06
6.36336e-08
1.11092e-06
4.14202e-08
1.04749e-06
8.40853e-09
9.55219e-07
-3.95147e-08
8.34555e-07
-9.59671e-08
7.01944e-07
-1.67499e-07
5.65098e-07
-2.39266e-07
4.45654e-07
-3.2327e-07
3.3094e-07
-4.09527e-07
2.17846e-07
-5.02791e-07
6.08155e-08
-5.81264e-07
-1.1232e-07
-6.64846e-07
-2.92071e-07
-7.34926e-07
-4.89537e-07
-7.86134e-07
-6.94031e-07
-8.1556e-07
-8.89883e-07
-8.26124e-07
-1.06558e-06
-8.27213e-07
-1.21433e-06
-8.17595e-07
-1.33277e-06
-7.71644e-07
-1.40146e-06
-5.7338e-07
-1.36095e-06
-1.34904e-07
-7.89959e-07
3.08113e-08
2.28296e-07
3.17595e-07
1.42491e-07
7.61135e-07
1.8463e-07
1.08426e-06
2.03664e-07
1.0888e-06
2.22019e-07
1.02906e-06
2.2812e-07
9.44481e-07
2.20311e-07
8.43844e-07
1.8779e-07
7.28523e-07
1.44886e-07
6.11479e-07
8.84786e-08
4.93635e-07
4.23959e-08
3.81474e-07
-1.782e-08
2.64021e-07
-8.25616e-08
1.2894e-07
-1.45591e-07
-6.83489e-08
-2.33747e-07
-2.09932e-07
-3.31357e-07
-4.00083e-07
-4.14579e-07
-6.16294e-07
-4.79182e-07
-8.27795e-07
-5.26375e-07
-1.0221e-06
-5.58677e-07
-1.18269e-06
-5.89846e-07
-1.30219e-06
-6.06208e-07
-1.38415e-06
-5.55339e-07
-1.41333e-06
-2.52978e-07
-1.08205e-06
4.56188e-08
-1.05142e-07
3.60401e-07
2.25336e-07
5.33848e-07
3.17561e-07
9.89823e-07
3.55012e-07
1.05005e-06
3.90614e-07
9.89963e-07
4.34617e-07
8.99936e-07
4.68337e-07
8.06284e-07
4.8188e-07
7.13895e-07
4.68916e-07
6.20898e-07
4.36215e-07
5.26308e-07
3.86515e-07
4.26533e-07
3.34466e-07
3.1714e-07
2.64239e-07
1.86629e-07
1.98082e-07
-1.25621e-08
1.315e-07
-1.60189e-07
4.85074e-08
-3.28296e-07
-3.82614e-08
-5.3612e-07
-1.26462e-07
-7.47348e-07
-2.05803e-07
-9.45792e-07
-2.74628e-07
-1.11878e-06
-3.39261e-07
-1.2395e-06
-4.17604e-07
-1.30976e-06
-4.87567e-07
-1.34308e-06
-4.02822e-07
-1.19307e-06
-3.49621e-08
-4.76443e-07
3.08255e-07
2.6818e-07
2.60771e-07
4.49981e-07
8.0622e-07
5.28723e-07
9.69073e-07
5.79018e-07
9.38598e-07
6.3316e-07
8.42472e-07
6.91794e-07
7.44728e-07
7.4123e-07
6.61385e-07
7.69964e-07
5.89628e-07
7.70651e-07
5.23194e-07
7.42629e-07
4.52564e-07
6.94481e-07
3.62061e-07
6.38475e-07
2.40556e-07
5.4647e-07
7.21615e-08
4.69433e-07
-9.16088e-08
3.94738e-07
-2.61591e-07
3.10401e-07
-4.60434e-07
2.1715e-07
-6.60264e-07
1.16857e-07
-8.53384e-07
1.708e-08
-1.02473e-06
-8.6825e-08
-1.14164e-06
-2.15785e-07
-1.18653e-06
-3.82427e-07
-1.1902e-06
-4.42753e-07
-1.13412e-06
-2.02149e-07
-7.42183e-07
1.08626e-07
2.21957e-07
3.44945e-08
5.11678e-07
5.14532e-07
7.04646e-07
7.7508e-07
8.27745e-07
8.12889e-07
9.18657e-07
7.49705e-07
9.92344e-07
6.68079e-07
1.05169e-06
5.99095e-07
1.09638e-06
5.42177e-07
1.12148e-06
4.95558e-07
1.11788e-06
4.53815e-07
1.07792e-06
4.01159e-07
1.00235e-06
3.12326e-07
8.89508e-07
1.81517e-07
7.64349e-07
2.82929e-08
6.35434e-07
-1.38639e-07
4.91477e-07
-3.22124e-07
3.32397e-07
-5.07068e-07
1.63278e-07
-6.89891e-07
-9.98634e-09
-8.56783e-07
-1.80986e-07
-9.75803e-07
-3.52827e-07
-1.01956e-06
-5.54744e-07
-9.90963e-07
-7.80366e-07
-9.17504e-07
-7.87458e-07
-7.29853e-07
-2.24406e-07
-4.52907e-07
9.78541e-08
-7.14521e-08
3.89237e-07
2.20614e-07
6.77265e-07
4.8488e-07
9.17631e-07
5.71931e-07
1.10984e-06
5.55229e-07
1.2468e-06
5.28856e-07
1.32763e-06
5.15565e-07
1.36541e-06
5.02048e-07
1.37631e-06
4.82699e-07
1.3701e-06
4.58529e-07
1.33884e-06
4.29133e-07
1.27614e-06
3.74404e-07
1.18031e-06
2.7415e-07
1.06693e-06
1.38088e-07
9.41974e-07
-1.75322e-08
8.02974e-07
-1.86844e-07
6.54222e-07
-3.61775e-07
5.00871e-07
-5.39973e-07
3.48452e-07
-7.0778e-07
2.03443e-07
-8.33808e-07
7.40437e-08
-8.92485e-07
-4.42466e-08
-8.76029e-07
-1.63089e-07
-7.92835e-07
-2.22911e-07
-6.67079e-07
-4.1258e-07
-2.80626e-08
-1.43441e-08
-6.56185e-08
1.59845e-07
4.08571e-08
4.45094e-07
1.98575e-07
7.64242e-07
2.50914e-07
1.09853e-06
2.19177e-07
1.39508e-06
2.30446e-07
1.5791e-06
3.2937e-07
1.64629e-06
4.32938e-07
1.64427e-06
4.82795e-07
1.61131e-06
4.89408e-07
1.56513e-06
4.7565e-07
1.50001e-06
4.36046e-07
1.41253e-06
3.59956e-07
1.30682e-06
2.41646e-07
1.18823e-06
9.85471e-08
1.05747e-06
-5.84668e-08
9.20013e-07
-2.2648e-07
7.76153e-07
-3.98106e-07
6.28039e-07
-5.61505e-07
4.8401e-07
-6.91066e-07
3.56325e-07
-7.65442e-07
2.6069e-07
-7.78806e-07
2.0803e-07
-7.37846e-07
1.94307e-07
-6.48823e-07
-5.29937e-07
3.15764e-07
-1.16513e-07
4.2559e-08
-4.73806e-08
-3.33877e-08
2.1166e-07
-6.35187e-08
5.37885e-07
-7.71177e-08
8.83362e-07
-1.26964e-07
1.25612e-06
-1.45095e-07
1.59583e-06
-1.2671e-08
1.7899e-06
2.36658e-07
1.8365e-06
4.34826e-07
1.80714e-06
5.18247e-07
1.74678e-06
5.32694e-07
1.67379e-06
5.0939e-07
1.58671e-06
4.45198e-07
1.4877e-06
3.39023e-07
1.38096e-06
2.03722e-07
1.26415e-06
5.68566e-08
1.13959e-06
-1.03293e-07
1.00871e-06
-2.68421e-07
8.71196e-07
-4.25012e-07
7.34459e-07
-5.55003e-07
6.12293e-07
-6.42934e-07
5.19799e-07
-6.85444e-07
4.73267e-07
-6.89441e-07
4.95182e-07
-6.67433e-07
-6.28298e-07
5.94903e-07
-5.85097e-09
3.56532e-08
1.55161e-07
-1.98824e-07
4.35269e-07
-3.45216e-07
7.26494e-07
-3.6863e-07
9.49451e-07
-3.52733e-07
1.1637e-06
-3.61897e-07
1.44522e-06
-2.97118e-07
1.71105e-06
-3.15595e-08
1.83986e-06
3.04309e-07
1.85444e-06
5.01632e-07
1.82169e-06
5.66627e-07
1.76061e-06
5.67654e-07
1.68369e-06
5.2132e-07
1.5973e-06
4.24484e-07
1.50456e-06
2.95563e-07
1.40605e-06
1.54446e-07
1.29749e-06
4.49287e-09
1.18155e-06
-1.53177e-07
1.0575e-06
-3.01549e-07
9.32437e-07
-4.30144e-07
8.20882e-07
-5.31353e-07
7.43511e-07
-6.07502e-07
7.20478e-07
-6.64764e-07
7.58482e-07
-7.05221e-07
-7.24361e-07
8.55752e-07
1.06406e-07
-7.76051e-08
3.38533e-07
-4.33619e-07
5.83358e-07
-5.91754e-07
8.02464e-07
-5.89713e-07
9.68859e-07
-5.21002e-07
1.08694e-06
-4.83097e-07
1.24583e-06
-4.60277e-07
1.5019e-06
-2.90993e-07
1.7043e-06
9.98991e-08
1.78047e-06
4.25264e-07
1.77924e-06
5.64806e-07
1.74903e-06
5.98625e-07
1.69318e-06
5.76111e-07
1.62812e-06
4.88838e-07
1.55591e-06
3.67223e-07
1.47877e-06
2.31206e-07
1.39e-06
9.28769e-08
1.28981e-06
-5.33887e-08
1.18073e-06
-1.92829e-07
1.06928e-06
-3.18983e-07
9.71685e-07
-4.33595e-07
9.1344e-07
-5.48926e-07
9.16259e-07
-6.67847e-07
9.8447e-07
-7.72502e-07
-8.42721e-07
1.10254e-06
1.73311e-07
-2.57764e-07
3.85957e-07
-6.4978e-07
5.5995e-07
-7.67627e-07
7.13349e-07
-7.44843e-07
8.49624e-07
-6.60293e-07
9.49122e-07
-5.87119e-07
1.04115e-06
-5.57391e-07
1.22294e-06
-4.77124e-07
1.4516e-06
-1.31691e-07
1.58866e-06
2.85711e-07
1.63521e-06
5.19356e-07
1.63765e-06
5.94109e-07
1.61558e-06
5.97836e-07
1.57865e-06
5.2544e-07
1.53171e-06
4.14008e-07
1.47686e-06
2.85974e-07
1.41146e-06
1.58182e-07
1.33114e-06
2.68189e-08
1.24053e-06
-1.02423e-07
1.14545e-06
-2.23996e-07
1.06723e-06
-3.5552e-07
1.04128e-06
-5.23078e-07
1.0872e-06
-7.13458e-07
1.19309e-06
-8.79012e-07
-9.84104e-07
1.33428e-06
1.79072e-07
-4.44203e-07
3.24967e-07
-7.99044e-07
4.2555e-07
-8.70534e-07
5.20036e-07
-8.42224e-07
6.2211e-07
-7.67031e-07
7.18161e-07
-6.8915e-07
8.02118e-07
-6.47084e-07
9.15556e-07
-5.9661e-07
1.13024e-06
-3.50638e-07
1.30764e-06
1.07382e-07
1.40009e-06
4.24189e-07
1.44263e-06
5.52163e-07
1.46108e-06
5.78765e-07
1.45963e-06
5.26591e-07
1.4437e-06
4.29832e-07
1.41568e-06
3.14029e-07
1.3758e-06
1.98189e-07
1.31881e-06
8.37904e-08
1.24763e-06
-3.13346e-08
1.16957e-06
-1.46121e-07
1.12068e-06
-3.06668e-07
1.1453e-06
-5.478e-07
1.24563e-06
-8.14203e-07
1.39031e-06
-1.02395e-06
-1.14382e-06
1.54955e-06
1.24583e-07
-5.73675e-07
1.83903e-07
-8.62005e-07
2.08254e-07
-8.98711e-07
2.4052e-07
-8.79486e-07
3.02284e-07
-8.32613e-07
3.8152e-07
-7.76516e-07
4.57847e-07
-7.31632e-07
5.45934e-07
-6.92103e-07
7.31383e-07
-5.41504e-07
9.46653e-07
-1.11664e-07
1.09541e-06
2.75557e-07
1.18627e-06
4.59e-07
1.24852e-06
5.15954e-07
1.28732e-06
4.87384e-07
1.30712e-06
4.09881e-07
1.31e-06
3.11192e-07
1.29704e-06
2.11234e-07
1.26537e-06
1.1554e-07
1.21224e-06
2.17697e-08
1.15476e-06
-8.86624e-08
1.15491e-06
-3.06957e-07
1.24945e-06
-6.42444e-07
1.4064e-06
-9.71415e-07
1.57981e-06
-1.19767e-06
-1.3124e-06
1.74789e-06
2.5546e-08
-6.08365e-07
-2.85316e-09
-8.39633e-07
-5.18045e-08
-8.54404e-07
-7.54151e-08
-8.56726e-07
-6.38599e-08
-8.56253e-07
-1.81059e-08
-8.30158e-07
3.23543e-08
-7.9245e-07
9.08439e-08
-7.59084e-07
2.27206e-07
-6.85648e-07
5.02393e-07
-3.91172e-07
7.24406e-07
4.92375e-08
8.75961e-07
3.07419e-07
9.90244e-07
3.99761e-07
1.07568e-06
4.00958e-07
1.13623e-06
3.48932e-07
1.17407e-06
2.7334e-07
1.19108e-06
1.94383e-07
1.18463e-06
1.22182e-07
1.14676e-06
5.97323e-08
1.1246e-06
-6.65035e-08
1.20277e-06
-3.85083e-07
1.3753e-06
-8.15127e-07
1.57541e-06
-1.17157e-06
1.76111e-06
-1.38387e-06
-1.48e-06
1.92846e-06
-8.15681e-08
-5.31213e-07
-1.89665e-07
-7.35561e-07
-2.82903e-07
-7.63067e-07
-3.47157e-07
-8.0327e-07
-3.76451e-07
-8.27589e-07
-3.79945e-07
-8.37422e-07
-3.48311e-07
-8.33751e-07
-3.00464e-07
-8.15139e-07
-2.54651e-07
-7.38872e-07
-6.94512e-08
-5.82927e-07
2.61407e-07
-2.81187e-07
5.0563e-07
5.68198e-08
6.89807e-07
2.14537e-07
8.3227e-07
2.57311e-07
9.41483e-07
2.39087e-07
1.02078e-06
1.93864e-07
1.07259e-06
1.42673e-07
1.08904e-06
1.05991e-07
1.06844e-06
8.05613e-08
1.11646e-06
-1.14365e-07
1.29505e-06
-5.63647e-07
1.53186e-06
-1.05185e-06
1.74897e-06
-1.38899e-06
1.92924e-06
-1.56409e-06
-1.63572e-06
2.08456e-06
-1.74801e-07
-3.65128e-07
-3.44505e-07
-5.70175e-07
-4.69337e-07
-6.43396e-07
-5.55354e-07
-7.13535e-07
-6.22233e-07
-7.70635e-07
-6.6017e-07
-8.03894e-07
-6.7096e-07
-8.27021e-07
-6.58395e-07
-8.31784e-07
-6.06653e-07
-7.935e-07
-5.2844e-07
-6.62416e-07
-3.05297e-07
-5.18911e-07
4.92742e-08
-2.94205e-07
3.34424e-07
-7.55707e-08
5.52051e-07
3.75151e-08
7.23384e-07
6.68299e-08
8.55592e-07
6.13924e-08
9.47421e-07
5.10446e-08
9.93243e-07
6.05588e-08
1.01079e-06
6.33856e-08
1.17073e-06
-2.74106e-07
1.44501e-06
-8.37765e-07
1.70734e-06
-1.31424e-06
1.91175e-06
-1.59319e-06
2.06835e-06
-1.72111e-06
-1.7658e-06
2.19841e-06
-2.53802e-07
-1.10206e-07
-4.63473e-07
-3.60897e-07
-6.12294e-07
-4.92462e-07
-7.27733e-07
-6.05969e-07
-8.04386e-07
-6.90303e-07
-8.50801e-07
-7.60087e-07
-8.65814e-07
-8.14047e-07
-8.58524e-07
-8.4002e-07
-8.26337e-07
-8.2622e-07
-7.30791e-07
-7.60709e-07
-6.03969e-07
-6.38324e-07
-3.94262e-07
-5.16042e-07
-9.11345e-08
-3.78577e-07
2.09066e-07
-2.63222e-07
4.6585e-07
-1.90452e-07
6.69651e-07
-1.42466e-07
8.12698e-07
-9.16187e-08
8.81983e-07
-8.0876e-09
1.0164e-06
-7.05674e-08
1.3139e-06
-5.71322e-07
1.63135e-06
-1.1551e-06
1.87293e-06
-1.55563e-06
2.03917e-06
-1.75969e-06
2.15951e-06
-1.84121e-06
-1.86271e-06
2.25613e-06
-2.99339e-07
1.8821e-07
-5.32392e-07
-1.27142e-07
-7.0662e-07
-3.20237e-07
-8.30028e-07
-4.74194e-07
-9.14209e-07
-6.09244e-07
-9.49448e-07
-7.22082e-07
-9.43552e-07
-8.18117e-07
-9.03836e-07
-8.7742e-07
-8.27821e-07
-8.99519e-07
-7.07919e-07
-8.75798e-07
-5.40385e-07
-8.0955e-07
-3.3672e-07
-7.10094e-07
-1.18996e-07
-5.94835e-07
1.38339e-07
-5.19498e-07
4.10986e-07
-4.62598e-07
6.34601e-07
-3.65475e-07
7.71241e-07
-2.27377e-07
8.75174e-07
-1.11192e-07
1.15914e-06
-3.54007e-07
1.52312e-06
-9.35044e-07
1.81245e-06
-1.44423e-06
1.99915e-06
-1.74235e-06
2.11721e-06
-1.87744e-06
2.20003e-06
-1.92441e-06
-1.93155e-06
2.26897e-06
-2.61707e-07
4.5881e-07
-5.31374e-07
1.47343e-07
-7.26325e-07
-1.17873e-07
-8.6429e-07
-3.37838e-07
-9.40987e-07
-5.2414e-07
-9.65642e-07
-6.92633e-07
-9.43828e-07
-8.34431e-07
-8.66099e-07
-9.49682e-07
-7.36143e-07
-1.02381e-06
-5.70601e-07
-1.03823e-06
-3.69574e-07
-9.99006e-07
-1.55759e-07
-9.22755e-07
8.6457e-08
-8.30729e-07
3.36242e-07
-7.65985e-07
5.54694e-07
-6.79418e-07
7.17611e-07
-5.27124e-07
8.15797e-07
-3.24331e-07
1.01813e-06
-3.12626e-07
1.39027e-06
-7.2567e-07
1.7282e-06
-1.27269e-06
1.94818e-06
-1.66407e-06
2.07486e-06
-1.86881e-06
2.15159e-06
-1.95443e-06
2.20919e-06
-1.98166e-06
-1.98674e-06
2.26414e-06
-1.91531e-07
6.59844e-07
-4.55182e-07
4.20056e-07
-6.78758e-07
1.09403e-07
-8.2398e-07
-1.81767e-07
-9.05953e-07
-4.358e-07
-9.25625e-07
-6.64947e-07
-8.80538e-07
-8.71511e-07
-7.7606e-07
-1.04654e-06
-6.27319e-07
-1.16537e-06
-4.45095e-07
-1.21126e-06
-2.44127e-07
-1.1972e-06
-1.91376e-08
-1.13628e-06
2.17443e-07
-1.06172e-06
4.3561e-07
-9.8082e-07
6.08127e-07
-8.498e-07
7.32046e-07
-6.49318e-07
8.97368e-07
-4.88312e-07
1.23271e-06
-6.47157e-07
1.60926e-06
-1.10176e-06
1.87601e-06
-1.53918e-06
2.02661e-06
-1.81447e-06
2.10751e-06
-1.94972e-06
2.159e-06
-2.00555e-06
2.20411e-06
-2.02715e-06
-2.03767e-06
2.25521e-06
-1.48068e-07
8.18703e-07
-3.52932e-07
6.34911e-07
-5.63671e-07
3.34065e-07
-7.17377e-07
-1.89125e-08
-8.00439e-07
-3.43103e-07
-8.2066e-07
-6.33862e-07
-7.81209e-07
-9.01152e-07
-6.87023e-07
-1.13164e-06
-5.40033e-07
-1.30399e-06
-3.5644e-07
-1.38869e-06
-1.49943e-07
-1.39234e-06
6.38558e-08
-1.34487e-06
2.72945e-07
-1.26499e-06
4.53759e-07
-1.15803e-06
6.06613e-07
-1.00019e-06
7.78351e-07
-8.19186e-07
1.07132e-06
-7.79994e-07
1.45428e-06
-1.02936e-06
1.76783e-06
-1.41487e-06
1.95696e-06
-1.72802e-06
2.05475e-06
-1.9121e-06
2.1071e-06
-2.00182e-06
2.1451e-06
-2.04379e-06
2.18598e-06
-2.06761e-06
-2.08793e-06
2.23604e-06
-1.18507e-07
9.49299e-07
-2.63885e-07
7.93681e-07
-4.2665e-07
5.08862e-07
-5.71347e-07
1.38583e-07
-6.64319e-07
-2.34967e-07
-7.04195e-07
-5.83125e-07
-6.88476e-07
-9.06441e-07
-6.09044e-07
-1.20174e-06
-4.58802e-07
-1.44599e-06
-2.65981e-07
-1.57254e-06
-6.38087e-08
-1.58934e-06
1.35917e-07
-1.53647e-06
3.24035e-07
-1.44816e-06
4.98791e-07
-1.32931e-06
6.84034e-07
-1.18295e-06
9.37402e-07
-1.07079e-06
1.28141e-06
-1.12287e-06
1.61552e-06
-1.36279e-06
1.8472e-06
-1.64611e-06
1.97494e-06
-1.85547e-06
2.03847e-06
-1.97541e-06
2.07531e-06
-2.03864e-06
2.10912e-06
-2.07717e-06
2.15007e-06
-2.10892e-06
-2.13946e-06
2.20182e-06
-8.05218e-08
1.03877e-06
-1.74506e-07
8.96687e-07
-2.78354e-07
6.2639e-07
-3.82737e-07
2.66597e-07
-4.87146e-07
-1.21047e-07
-5.47392e-07
-5.09919e-07
-5.58735e-07
-8.84297e-07
-4.99391e-07
-1.25217e-06
-3.4969e-07
-1.58789e-06
-1.55593e-07
-1.76047e-06
4.21322e-08
-1.77907e-06
2.32812e-07
-1.72194e-06
4.18704e-07
-1.62966e-06
6.08797e-07
-1.51619e-06
8.31118e-07
-1.40297e-06
1.11454e-06
-1.35261e-06
1.42794e-06
-1.43521e-06
1.68754e-06
-1.62169e-06
1.85196e-06
-1.81008e-06
1.93843e-06
-1.9416e-06
1.98366e-06
-2.02042e-06
2.0172e-06
-2.07189e-06
2.05435e-06
-2.11453e-06
2.10109e-06
-2.15517e-06
-2.19572e-06
2.15719e-06
-2.38111e-08
1.07238e-06
-6.22549e-08
9.45914e-07
-9.43327e-08
6.72948e-07
-1.28084e-07
3.11526e-07
-2.13615e-07
-1.04831e-08
-2.94012e-07
-4.17956e-07
-3.454e-07
-8.2386e-07
-3.30759e-07
-1.25918e-06
-2.03344e-07
-1.70894e-06
-2.04115e-08
-1.93703e-06
1.67143e-07
-1.96181e-06
3.53499e-07
-1.90383e-06
5.40218e-07
-1.8125e-06
7.39359e-07
-1.71252e-06
9.70469e-07
-1.63206e-06
1.23588e-06
-1.6166e-06
1.4917e-06
-1.69007e-06
1.68318e-06
-1.81251e-06
1.79816e-06
-1.92458e-06
1.86138e-06
-2.00447e-06
1.90358e-06
-2.06234e-06
1.94435e-06
-2.11258e-06
1.99186e-06
-2.16157e-06
2.04669e-06
-2.2103e-06
-2.25716e-06
2.10841e-06
4.96073e-08
1.0283e-06
5.92861e-08
9.41153e-07
9.22206e-08
6.49201e-07
1.67894e-07
2.70717e-07
1.4342e-07
2.1827e-08
5.09293e-08
-3.14287e-07
-5.29724e-08
-7.11868e-07
-1.07245e-07
-1.19889e-06
-2.43174e-08
-1.787e-06
1.3308e-07
-2.09039e-06
3.0577e-07
-2.131e-06
4.82534e-07
-2.07664e-06
6.62778e-07
-1.99014e-06
8.56271e-07
-1.90389e-06
1.07103e-06
-1.84522e-06
1.29364e-06
-1.83803e-06
1.48626e-06
-1.88182e-06
1.62185e-06
-1.94746e-06
1.70681e-06
-2.00907e-06
1.76517e-06
-2.06245e-06
1.81691e-06
-2.11381e-06
1.8713e-06
-2.16664e-06
1.92976e-06
-2.2202e-06
1.99212e-06
-2.27213e-06
-2.32229e-06
2.05715e-06
1.22581e-07
9.08303e-07
1.72472e-07
8.9551e-07
2.25739e-07
6.03011e-07
2.86593e-07
2.04522e-07
3.42468e-07
-1.92946e-08
3.40291e-07
-3.07683e-07
2.5203e-07
-6.19049e-07
1.45881e-07
-1.08936e-06
1.74082e-07
-1.8125e-06
2.99269e-07
-2.21333e-06
4.50781e-07
-2.27958e-06
6.08784e-07
-2.23333e-06
7.72463e-07
-2.15169e-06
9.44617e-07
-2.07443e-06
1.1234e-06
-2.02274e-06
1.29235e-06
-2.00601e-06
1.43008e-06
-2.0188e-06
1.53103e-06
-2.04783e-06
1.60744e-06
-2.08501e-06
1.67441e-06
-2.12907e-06
1.74009e-06
-2.17918e-06
1.80604e-06
-2.23249e-06
1.87205e-06
-2.28571e-06
1.93733e-06
-2.33764e-06
-2.38771e-06
2.00306e-06
1.83868e-07
7.25463e-07
2.62535e-07
8.16548e-07
2.88576e-07
5.734e-07
3.31662e-07
1.69539e-07
4.1716e-07
-1.12739e-07
4.85055e-07
-3.75816e-07
4.61231e-07
-5.94975e-07
3.72358e-07
-9.9981e-07
3.73321e-07
-1.81267e-06
4.70672e-07
-2.30958e-06
5.93146e-07
-2.402e-06
7.24579e-07
-2.36276e-06
8.59214e-07
-2.28542e-06
9.96477e-07
-2.21073e-06
1.13116e-06
-2.15656e-06
1.25354e-06
-2.12766e-06
1.35752e-06
-2.12216e-06
1.44618e-06
-2.13599e-06
1.5269e-06
-2.16531e-06
1.60419e-06
-2.20601e-06
1.67858e-06
-2.25332e-06
1.74945e-06
-2.30304e-06
1.81658e-06
-2.35296e-06
1.88163e-06
-2.40218e-06
-2.45182e-06
1.94571e-06
2.24099e-07
4.97137e-07
3.64692e-07
6.73913e-07
4.41887e-07
4.95178e-07
4.70872e-07
1.28875e-07
5.4696e-07
-1.91995e-07
6.19496e-07
-4.52459e-07
6.27384e-07
-6.0603e-07
5.62086e-07
-9.36084e-07
5.63415e-07
-1.81478e-06
6.35571e-07
-2.38237e-06
7.2523e-07
-2.49068e-06
8.21387e-07
-2.45949e-06
9.20519e-07
-2.384e-06
1.02008e-06
-2.30975e-06
1.11784e-06
-2.25376e-06
1.2117e-06
-2.221e-06
1.3016e-06
-2.21158e-06
1.3887e-06
-2.22266e-06
1.47301e-06
-2.24926e-06
1.55307e-06
-2.28578e-06
1.62758e-06
-2.32757e-06
1.6965e-06
-2.37186e-06
1.76144e-06
-2.41746e-06
1.82377e-06
-2.46467e-06
-2.51332e-06
1.88557e-06
2.12221e-07
2.81298e-07
4.4966e-07
4.33356e-07
5.97635e-07
3.41288e-07
6.68251e-07
5.41967e-08
7.28051e-07
-2.59022e-07
7.58711e-07
-4.89463e-07
7.4746e-07
-5.9976e-07
7.07053e-07
-8.98648e-07
7.29695e-07
-1.83899e-06
7.8314e-07
-2.4365e-06
8.38152e-07
-2.5472e-06
8.99033e-07
-2.52008e-06
9.63866e-07
-2.44902e-06
1.03355e-06
-2.37933e-06
1.10853e-06
-2.32848e-06
1.18859e-06
-2.30073e-06
1.27197e-06
-2.29463e-06
1.35547e-06
-2.30584e-06
1.4357e-06
-2.3292e-06
1.5105e-06
-2.36031e-06
1.57949e-06
-2.39636e-06
1.64383e-06
-2.43593e-06
1.70486e-06
-2.47859e-06
1.76451e-06
-2.52387e-06
-2.5723e-06
1.82349e-06
1.44388e-07
1.2711e-07
4.16694e-07
1.55552e-07
6.4769e-07
1.06097e-07
7.67348e-07
-7.26961e-08
8.15693e-07
-3.14326e-07
8.1241e-07
-4.92334e-07
7.83652e-07
-5.76685e-07
7.98092e-07
-9.16508e-07
8.61425e-07
-1.90437e-06
9.02996e-07
-2.47972e-06
9.29854e-07
-2.57442e-06
9.59529e-07
-2.55095e-06
9.98865e-07
-2.48877e-06
1.04963e-06
-2.43025e-06
1.1117e-06
-2.39049e-06
1.18235e-06
-2.37121e-06
1.25702e-06
-2.36908e-06
1.33123e-06
-2.37982e-06
1.40206e-06
-2.39978e-06
1.4685e-06
-2.42655e-06
1.53099e-06
-2.45867e-06
1.59046e-06
-2.49534e-06
1.64818e-06
-2.53594e-06
1.70458e-06
-2.58039e-06
-2.62805e-06
1.76059e-06
4.85177e-08
6.9704e-08
2.34302e-07
-3.57736e-08
4.70297e-07
-1.35523e-07
6.41738e-07
-2.50427e-07
7.22165e-07
-3.9963e-07
7.28636e-07
-5.05587e-07
7.24698e-07
-5.78719e-07
8.43079e-07
-1.03831e-06
9.58332e-07
-2.0216e-06
9.91689e-07
-2.51434e-06
9.9618e-07
-2.58051e-06
1.00545e-06
-2.56091e-06
1.02864e-06
-2.51259e-06
1.06754e-06
-2.46947e-06
1.11941e-06
-2.44247e-06
1.17938e-06
-2.43113e-06
1.24257e-06
-2.43216e-06
1.30559e-06
-2.44268e-06
1.36676e-06
-2.46079e-06
1.42571e-06
-2.48533e-06
1.48262e-06
-2.51547e-06
1.53798e-06
-2.55051e-06
1.59191e-06
-2.58997e-06
1.64506e-06
-2.63319e-06
-2.68038e-06
1.69739e-06
-3.78788e-08
9.39184e-08
2.66238e-08
-1.06135e-07
1.70619e-07
-2.84391e-07
3.27469e-07
-4.10635e-07
4.46749e-07
-5.26126e-07
5.168e-07
-5.81555e-07
6.23636e-07
-6.90408e-07
8.74687e-07
-1.29212e-06
1.02561e-06
-2.17432e-06
1.04629e-06
-2.53646e-06
1.03787e-06
-2.57297e-06
1.03573e-06
-2.55974e-06
1.04971e-06
-2.52729e-06
1.07986e-06
-2.50003e-06
1.12195e-06
-2.48475e-06
1.1711e-06
-2.48032e-06
1.22357e-06
-2.48459e-06
1.27712e-06
-2.49614e-06
1.33062e-06
-2.51418e-06
1.38353e-06