/*--------------------------------*- C++ -*----------------------------------*\
  =========                 |
  \\      /  F ield         | OpenFOAM: The Open Source CFD Toolbox
   \\    /   O peration     | Website:  https://openfoam.org
    \\  /    A nd           | Version:  13
     \\/     M anipulation  |
\*---------------------------------------------------------------------------*/
FoamFile
{
    format      ascii;
    class       surfaceScalarField;
    location    "22";
    object      phi;
}
// * * * * * * * * * * * * * * * * * * * * * * * * * * * * * * * * * * * * * //

dimensions      [0 3 -1 0 0 0 0];

internalField   nonuniform List<scalar> 
12590
(
-9.70949e-13
9.7097e-13
-2.23685e-12
1.26593e-12
-3.26366e-12
1.02684e-12
-4.11431e-12
8.50681e-13
-4.81807e-12
7.03793e-13
-5.30206e-12
4.84019e-13
-5.58363e-12
2.81605e-13
-5.62737e-12
4.37743e-14
-5.40667e-12
-2.20672e-13
-4.90717e-12
-4.99473e-13
-4.13228e-12
-7.74859e-13
-3.10672e-12
-1.02553e-12
-1.87773e-12
-1.22896e-12
-5.12603e-13
-1.3651e-12
9.0851e-13
-1.42108e-12
2.30764e-12
-1.3991e-12
3.62489e-12
-1.31723e-12
4.803e-12
-1.17808e-12
5.73783e-12
-9.34802e-13
6.44583e-12
-7.07984e-13
6.92395e-12
-4.78089e-13
6.87865e-12
4.53139e-14
6.14297e-12
7.35705e-13
3.61306e-12
2.52994e-12
3.61306e-12
-7.78562e-13
1.74957e-12
-1.72705e-12
2.21447e-12
-2.45211e-12
1.75194e-12
-3.04263e-12
1.44125e-12
-3.56461e-12
1.22582e-12
-3.94083e-12
8.60286e-13
-4.20174e-12
5.4257e-13
-4.3331e-12
1.75177e-13
-4.32399e-12
-2.29731e-13
-4.16749e-12
-6.5593e-13
-3.86569e-12
-1.07661e-12
-3.43134e-12
-1.45983e-12
-2.89145e-12
-1.76881e-12
-2.28916e-12
-1.96734e-12
-1.68182e-12
-2.02837e-12
-1.13415e-12
-1.94673e-12
-7.09261e-13
-1.74208e-12
-4.31093e-13
-1.4562e-12
-2.48205e-13
-1.11765e-12
-3.24379e-13
-6.3177e-13
-5.29311e-13
-2.73117e-13
-6.33542e-13
1.49584e-13
-5.48631e-13
6.5084e-13
-1.58674e-13
2.14002e-12
3.45439e-12
-7.93198e-13
2.54282e-12
-1.60319e-12
3.02452e-12
-2.17908e-12
2.32789e-12
-2.64577e-12
1.90801e-12
-3.06388e-12
1.64399e-12
-3.53979e-12
1.33625e-12
-3.81583e-12
8.18671e-13
-3.98435e-12
3.43747e-13
-4.03374e-12
-1.80283e-13
-3.94966e-12
-7.39946e-13
-3.72145e-12
-1.30477e-12
-3.34842e-12
-1.8328e-12
-2.84348e-12
-2.27369e-12
-2.23633e-12
-2.57444e-12
-1.57183e-12
-2.69282e-12
-9.05876e-13
-2.61262e-12
-2.88371e-13
-2.35953e-12
2.411e-13
-1.98562e-12
5.26697e-13
-1.4032e-12
5.91647e-13
-6.96676e-13
4.95936e-13
-1.77365e-13
3.29245e-13
3.16314e-13
1.81515e-13
7.98611e-13
1.52504e-13
2.16908e-12
3.6069e-12
-8.95463e-13
3.43833e-12
-1.64806e-12
3.77718e-12
-2.13523e-12
2.81513e-12
-2.52063e-12
2.29347e-12
-2.86389e-12
1.98732e-12
-3.20726e-12
1.67969e-12
-3.64243e-12
1.25391e-12
-3.92106e-12
6.22446e-13
-4.01152e-12
-8.97519e-14
-4.00041e-12
-7.50986e-13
-3.86947e-12
-1.43564e-12
-3.6089e-12
-2.0933e-12
-3.214e-12
-2.66852e-12
-2.69439e-12
-3.09398e-12
-2.07987e-12
-3.30727e-12
-1.41972e-12
-3.27272e-12
-7.64376e-13
-3.01481e-12
-1.40787e-13
-2.60915e-12
3.3395e-13
-1.87788e-12
5.57791e-13
-9.20461e-13
5.61803e-13
-1.81323e-13
4.47409e-13
4.30762e-13
3.04223e-13
9.41856e-13
1.89425e-13
2.28393e-12
3.79633e-12
-1.01214e-12
4.45053e-12
-1.746e-12
4.51111e-12
-2.19419e-12
3.2634e-12
-2.55296e-12
2.65232e-12
-2.88464e-12
2.31908e-12
-3.21485e-12
2.00998e-12
-3.60239e-12
1.64152e-12
-4.055e-12
1.07513e-12
-4.38562e-12
2.40947e-13
-4.52095e-12
-6.15573e-13
-4.57712e-12
-1.3794e-12
-4.52283e-12
-2.14751e-12
-4.33198e-12
-2.85929e-12
-3.98449e-12
-3.4414e-12
-3.48074e-12
-3.81095e-12
-2.85032e-12
-3.90307e-12
-2.14905e-12
-3.71601e-12
-1.40427e-12
-3.35387e-12
-6.18589e-13
-2.66349e-12
-9.77813e-14
-1.44121e-12
1.66424e-13
-4.45471e-13
2.35248e-13
3.61989e-13
1.73295e-13
1.00386e-12
2.12485e-13
2.2448e-12
4.00883e-12
-1.12035e-12
5.57095e-12
-1.85851e-12
5.24937e-12
-2.31182e-12
3.71681e-12
-2.69645e-12
3.03704e-12
-3.07516e-12
2.69789e-12
-3.47228e-12
2.40719e-12
-3.9091e-12
2.07844e-12
-4.44954e-12
1.61566e-12
-5.06385e-12
8.55354e-13
-5.40783e-12
-2.71503e-13
-5.69448e-12
-1.09266e-12
-5.884e-12
-1.9579e-12
-5.93456e-12
-2.80864e-12
-5.79629e-12
-3.57957e-12
-5.43226e-12
-4.17489e-12
-4.83745e-12
-4.49779e-12
-4.05949e-12
-4.49388e-12
-3.17097e-12
-4.2423e-12
-1.98831e-12
-3.84607e-12
-1.03353e-12
-2.39591e-12
-3.70177e-13
-1.10875e-12
-2.1919e-14
1.38025e-14
2.13451e-14
9.60677e-13
2.8474e-13
1.98147e-12
4.29358e-12
-1.2193e-12
6.79034e-12
-1.98206e-12
6.01223e-12
-2.47963e-12
4.21448e-12
-2.93437e-12
3.49189e-12
-3.40289e-12
3.16653e-12
-3.90303e-12
2.90743e-12
-4.43847e-12
2.61399e-12
-5.0482e-12
2.22549e-12
-5.73906e-12
1.54632e-12
-6.44641e-12
4.35964e-13
-6.91172e-12
-6.27242e-13
-7.31623e-12
-1.55328e-12
-7.5945e-12
-2.53027e-12
-7.67115e-12
-3.50281e-12
-7.46548e-12
-4.38046e-12
-6.9299e-12
-5.03327e-12
-6.07575e-12
-5.34793e-12
-5.00104e-12
-5.31692e-12
-3.73523e-12
-5.11179e-12
-2.1946e-12
-3.93645e-12
-1.01429e-12
-2.28898e-12
-2.65422e-13
-7.34997e-13
-5.93331e-14
7.54664e-13
3.3517e-13
1.58704e-12
4.62876e-12
-1.30678e-12
8.09722e-12
-2.1082e-12
6.81377e-12
-2.67542e-12
4.78183e-12
-3.22509e-12
4.04169e-12
-3.80213e-12
3.74369e-12
-4.41099e-12
3.51642e-12
-5.04424e-12
3.24736e-12
-5.71315e-12
2.89453e-12
-6.48695e-12
2.32024e-12
-7.34043e-12
1.28957e-12
-7.92984e-12
-3.77121e-14
-8.48734e-12
-9.95662e-13
-8.94674e-12
-2.07075e-12
-9.22392e-12
-3.22551e-12
-9.21487e-12
-4.38939e-12
-8.81588e-12
-5.43215e-12
-7.99282e-12
-6.17087e-12
-6.83229e-12
-6.47734e-12
-5.51304e-12
-6.43094e-12
-3.43269e-12
-6.0167e-12
-1.70634e-12
-4.01524e-12
-4.99363e-13
-1.94188e-12
-1.52199e-14
2.70619e-13
3.55776e-13
1.21614e-12
4.98456e-12
-1.37984e-12
9.47718e-12
-2.22829e-12
7.66236e-12
-2.8802e-12
5.43389e-12
-3.53771e-12
4.69934e-12
-4.22903e-12
4.43515e-12
-4.94069e-12
4.22823e-12
-5.65194e-12
3.95876e-12
-6.35395e-12
3.59669e-12
-7.11865e-12
3.08509e-12
-7.94363e-12
2.11469e-12
-8.58181e-12
6.00615e-13
-9.19151e-12
-3.85827e-13
-9.73817e-12
-1.52394e-12
-1.01539e-11
-2.80962e-12
-1.03309e-11
-4.21223e-12
-1.01311e-11
-5.63182e-12
-9.43223e-12
-6.86963e-12
-8.23024e-12
-7.6792e-12
-6.7104e-12
-7.95066e-12
-4.83765e-12
-7.88933e-12
-2.46766e-12
-6.38511e-12
-7.02581e-13
-3.70686e-12
1.35082e-13
-5.66939e-13
3.31531e-13
1.0198e-12
5.31611e-12
-1.43135e-12
1.09087e-11
-2.32355e-12
8.55472e-12
-3.05751e-12
6.168e-12
-3.81359e-12
5.45558e-12
-4.59935e-12
5.22108e-12
-5.38164e-12
5.01067e-12
-6.12491e-12
4.70219e-12
-6.81195e-12
4.28389e-12
-7.47617e-12
3.74947e-12
-8.15139e-12
2.79007e-12
-8.82038e-12
1.26976e-12
-9.30239e-12
9.63483e-14
-9.78454e-12
-1.04164e-12
-1.02231e-11
-2.3709e-12
-1.05294e-11
-3.90582e-12
-1.05646e-11
-5.59637e-12
-1.01463e-11
-7.28785e-12
-9.14779e-12
-8.67753e-12
-7.65832e-12
-9.43998e-12
-6.00489e-12
-9.54262e-12
-3.21432e-12
-9.17554e-12
-9.86823e-13
-5.93423e-12
2.47694e-13
-1.80132e-12
3.63777e-13
9.03851e-13
5.67992e-12
-1.45098e-12
1.23598e-11
-2.3676e-12
9.47151e-12
-3.15905e-12
6.95964e-12
-3.97963e-12
6.27634e-12
-4.81607e-12
6.05769e-12
-5.61661e-12
5.81139e-12
-6.33246e-12
5.41821e-12
-6.93934e-12
4.89094e-12
-7.44708e-12
4.25738e-12
-7.89408e-12
3.23723e-12
-8.39653e-12
1.77238e-12
-8.62054e-12
3.20534e-13
-8.88876e-12
-7.73247e-13
-9.20031e-12
-2.05918e-12
-9.5151e-12
-3.59086e-12
-9.73078e-12
-5.3805e-12
-9.66515e-12
-7.3533e-12
-9.07228e-12
-9.27022e-12
-7.81414e-12
-1.06979e-11
-6.11616e-12
-1.12404e-11
-4.19763e-12
-1.10939e-11
-1.42893e-12
-8.70278e-12
1.82772e-13
-3.41285e-12
4.54839e-13
6.3196e-13
6.13481e-12
-1.42591e-12
1.37859e-11
-2.32594e-12
1.03717e-11
-3.12104e-12
7.75493e-12
-3.93703e-12
7.09251e-12
-4.74303e-12
6.86388e-12
-5.47534e-12
6.54388e-12
-6.07984e-12
6.02289e-12
-6.5308e-12
5.34207e-12
-6.82918e-12
4.55594e-12
-7.00018e-12
3.40841e-12
-7.14833e-12
1.9207e-12
-6.99684e-12
1.69224e-13
-6.87852e-12
-8.91379e-13
-6.86053e-12
-2.07699e-12
-6.99721e-12
-3.45398e-12
-7.26148e-12
-5.11604e-12
-7.52075e-12
-7.09383e-12
-7.51424e-12
-9.27652e-12
-6.91404e-12
-1.12979e-11
-5.63035e-12
-1.25239e-11
-4.04368e-12
-1.26804e-11
-1.56261e-12
-1.11836e-11
1.51224e-13
-5.12645e-12
5.37898e-13
2.45517e-13
6.67278e-12
-1.34185e-12
1.51279e-11
-2.15911e-12
1.11892e-11
-2.86942e-12
8.46543e-12
-3.56908e-12
7.79237e-12
-4.21501e-12
7.50999e-12
-4.7411e-12
7.07015e-12
-5.09929e-12
6.38126e-12
-5.27082e-12
5.51378e-12
-5.25708e-12
4.54238e-12
-5.07476e-12
3.22626e-12
-4.81144e-12
1.65755e-12
-4.24203e-12
-4.00011e-13
-3.55841e-12
-1.57482e-12
-2.96299e-12
-2.67222e-12
-2.64341e-12
-3.77335e-12
-2.72527e-12
-5.03397e-12
-3.19475e-12
-6.62413e-12
-3.83647e-12
-8.63457e-12
-4.2293e-12
-1.09049e-11
-3.93381e-12
-1.28191e-11
-2.98447e-12
-1.36294e-11
-1.38986e-12
-1.2778e-11
1.19326e-13
-6.63535e-12
5.40068e-13
-1.74916e-13
7.21294e-12
-1.18546e-12
1.63135e-11
-1.82968e-12
1.18336e-11
-2.33245e-12
8.96839e-12
-2.75961e-12
8.21972e-12
-3.06218e-12
7.81275e-12
-3.182e-12
7.19015e-12
-3.08776e-12
6.28718e-12
-2.7739e-12
5.20009e-12
-2.24157e-12
4.0102e-12
-1.50848e-12
2.49331e-12
-6.27414e-13
7.76644e-13
1.62375e-13
-1.18964e-12
1.64585e-12
-3.05813e-12
2.97463e-12
-4.00082e-12
3.9889e-12
-4.78743e-12
4.43805e-12
-5.48291e-12
4.10487e-12
-6.29071e-12
2.96195e-12
-7.49139e-12
1.33158e-12
-9.27421e-12
-4.48536e-14
-1.14424e-11
-5.41214e-13
-1.31328e-11
-1.66886e-13
-1.3152e-11
7.84909e-14
-6.88036e-12
4.59663e-13
-5.55698e-13
7.67273e-12
-9.48662e-13
1.72623e-11
-1.31302e-12
1.21981e-11
-1.45998e-12
9.11555e-12
-1.42247e-12
8.1824e-12
-1.15299e-12
7.54345e-12
-6.09592e-13
6.64692e-12
2.10535e-13
5.46721e-12
1.29568e-12
4.1151e-12
2.62376e-12
2.68226e-12
4.16143e-12
9.55775e-13
5.7004e-12
-7.62204e-13
7.07711e-12
-2.56622e-12
8.74887e-12
-4.72976e-12
1.06818e-11
-5.93355e-12
1.22866e-11
-6.39214e-12
1.33332e-11
-6.52931e-12
1.34589e-11
-6.41617e-12
1.2335e-11
-6.36719e-12
9.88946e-12
-6.82843e-12
6.64053e-12
-8.19313e-12
3.65187e-12
-1.01437e-11
1.74607e-12
-1.12458e-11
5.50733e-13
-5.68457e-12
2.76055e-13
-2.80542e-13
7.94894e-12
-6.31017e-13
1.78935e-11
-6.12006e-13
1.21793e-11
-2.60261e-13
8.764e-12
4.06571e-13
7.51576e-12
1.43286e-12
6.51734e-12
2.90895e-12
5.171e-12
4.80501e-12
3.5713e-12
6.96869e-12
1.95156e-12
9.36802e-12
2.83048e-13
1.18649e-11
-1.54102e-12
1.43475e-11
-3.24464e-12
1.66361e-11
-4.85472e-12
1.84033e-11
-6.49689e-12
2.08977e-11
-8.42784e-12
2.30479e-11
-8.54228e-12
2.45843e-11
-8.06549e-12
2.5166e-11
-6.99774e-12
2.43255e-11
-5.5264e-12
2.16275e-11
-4.13015e-12
1.69799e-11
-3.54521e-12
1.10122e-11
-4.17568e-12
4.43213e-12
-4.66536e-12
5.37752e-13
-1.78969e-12
1.77703e-13
8.00502e-14
8.12682e-12
-2.3492e-13
1.81286e-11
2.94007e-13
1.16506e-11
1.33733e-12
7.72089e-12
2.93876e-12
5.91453e-12
5.18202e-12
4.27428e-12
7.94504e-12
2.40816e-12
1.1141e-11
3.7548e-13
1.46944e-11
-1.60163e-12
1.87104e-11
-3.73281e-12
2.27913e-11
-5.62185e-12
2.67344e-11
-7.18763e-12
3.03038e-11
-8.42408e-12
3.32095e-11
-9.40254e-12
3.51426e-11
-1.03608e-11
3.76683e-11
-1.10679e-11
3.93517e-11
-9.74879e-12
3.99359e-11
-7.58178e-12
3.9059e-11
-4.64936e-12
3.62751e-11
-1.34607e-12
3.11373e-11
1.59291e-12
2.08135e-11
6.14848e-12
9.05636e-12
7.09219e-12
7.77971e-14
7.18941e-12
-3.82589e-13
5.41022e-13
7.74443e-12
2.43332e-13
1.78855e-11
1.43388e-12
1.04603e-11
3.4468e-12
5.70822e-12
6.25496e-12
3.10661e-12
9.83703e-12
6.92464e-13
1.41447e-11
-1.89926e-12
1.90623e-11
-4.54197e-12
2.48015e-11
-7.34059e-12
3.09283e-11
-9.85943e-12
3.72263e-11
-1.19198e-11
4.34182e-11
-1.33794e-11
4.91477e-11
-1.41535e-11
5.40473e-11
-1.43021e-11
5.75352e-11
-1.38485e-11
5.94453e-11
-1.2978e-11
6.1483e-11
-1.17864e-11
6.17974e-11
-7.89604e-12
5.99206e-11
-2.77247e-12
5.54276e-11
3.14702e-12
4.77589e-11
9.26186e-12
3.4248e-11
1.96597e-11
1.69269e-11
2.44138e-11
-1.70976e-12
2.58266e-11
-6.07706e-12
4.90895e-12
1.6676e-12
7.39133e-13
1.71466e-11
2.72617e-12
8.47357e-12
5.8004e-12
2.63428e-12
9.94445e-12
-1.03713e-12
1.51265e-11
-4.48928e-12
2.12241e-11
-7.99657e-12
2.85143e-11
-1.18319e-11
3.6663e-11
-1.54891e-11
4.54866e-11
-1.86828e-11
5.47489e-11
-2.11818e-11
6.4153e-11
-2.27834e-11
7.32927e-11
-2.3293e-11
8.14978e-11
-2.25072e-11
8.83882e-11
-2.07389e-11
9.31042e-11
-1.76939e-11
9.48954e-11
-1.35776e-11
9.62223e-11
-9.22297e-12
9.34074e-11
4.24983e-14
8.6106e-11
1.04486e-11
7.20326e-11
2.33354e-11
4.94032e-11
4.22893e-11
1.77836e-11
5.60338e-11
-1.8369e-11
6.19798e-11
-3.95056e-11
2.60462e-11
-3.78378e-11
1.22944e-12
1.59174e-11
4.05676e-12
5.64659e-12
8.35474e-12
-1.66333e-12
1.3934e-11
-6.61602e-12
2.09952e-11
-1.15501e-11
2.95066e-11
-1.65076e-11
3.91907e-11
-2.15156e-11
5.00122e-11
-2.63103e-11
6.17856e-11
-3.04559e-11
7.42753e-11
-3.36712e-11
8.72105e-11
-3.57183e-11
1.00287e-10
-3.63698e-11
1.13206e-10
-3.54255e-11
1.25228e-10
-3.27614e-11
1.35528e-10
-2.79936e-11
1.42499e-10
-2.05481e-11
1.44403e-10
-1.1127e-11
1.42707e-10
1.73895e-12
1.36276e-10
1.68792e-11
1.19951e-10
3.9661e-11
9.08657e-11
7.13745e-11
3.76543e-11
1.09246e-10
-4.13661e-11
1.41001e-10
-1.32235e-10
1.16916e-10
-1.70072e-10
1.40309e-12
1.45147e-11
4.29686e-12
2.75322e-12
8.66236e-12
-6.0284e-12
1.45894e-11
-1.25426e-11
2.18057e-11
-1.87659e-11
3.03895e-11
-2.50909e-11
4.02871e-11
-3.14127e-11
5.14044e-11
-3.74271e-11
6.37266e-11
-4.27777e-11
7.72259e-11
-4.71702e-11
9.18708e-11
-5.03629e-11
1.07628e-10
-5.21269e-11
1.24468e-10
-5.22653e-11
1.42278e-10
-5.05708e-11
1.61048e-10
-4.67641e-11
1.81061e-10
-4.05608e-11
2.01646e-10
-3.17114e-11
2.228e-10
-1.94155e-11
2.42913e-10
-3.23325e-12
2.64869e-10
1.7705e-11
2.90845e-10
4.53984e-11
3.19425e-10
8.0667e-11
3.38136e-10
1.2229e-10
2.86224e-10
1.68828e-10
1.96582e-10
-8.04301e-11
1.56551e-12
1.29495e-11
4.8644e-12
-5.45209e-13
9.90561e-12
-1.10691e-11
1.66123e-11
-1.92489e-11
2.48469e-11
-2.69999e-11
3.4561e-11
-3.48045e-11
4.57138e-11
-4.2565e-11
5.82596e-11
-4.99724e-11
7.21849e-11
-5.67025e-11
8.74755e-11
-6.24605e-11
1.04103e-10
-6.69904e-11
1.22044e-10
-7.00671e-11
1.41263e-10
-7.1484e-11
1.61724e-10
-7.10316e-11
1.83432e-10
-6.84719e-11
2.0642e-10
-6.35484e-11
2.30623e-10
-5.59149e-11
2.56275e-10
-4.5067e-11
2.83455e-10
-3.04132e-11
3.12048e-10
-1.08877e-11
3.42762e-10
1.46846e-11
3.74544e-10
4.88855e-11
4.01833e-10
9.50024e-11
4.11093e-10
1.59569e-10
2.40998e-10
3.66677e-10
1.71067e-12
1.12392e-11
5.38564e-12
-4.21969e-12
1.10091e-11
-1.66921e-11
1.84583e-11
-2.66976e-11
2.76076e-11
-3.61486e-11
3.83733e-11
-4.55696e-11
5.07044e-11
-5.48957e-11
6.45774e-11
-6.38448e-11
7.99739e-11
-7.20985e-11
9.68764e-11
-7.93625e-11
1.15264e-10
-8.53778e-11
1.35113e-10
-8.99155e-11
1.56392e-10
-9.27622e-11
1.79067e-10
-9.37064e-11
2.0311e-10
-9.25143e-11
2.2848e-10
-8.89182e-11
2.55137e-10
-8.25723e-11
2.83054e-10
-7.29836e-11
3.12077e-10
-5.9436e-11
3.41955e-10
-4.07647e-11
3.71854e-10
-1.52138e-11
4.00314e-10
2.04259e-11
4.24148e-10
7.11686e-11
4.39165e-10
1.44554e-10
2.407e-10
4.39463e-10
1.83461e-12
9.40505e-12
5.84202e-12
-8.2266e-12
1.19796e-11
-2.28292e-11
2.01063e-11
-3.48237e-11
3.00828e-11
-4.61246e-11
4.18117e-11
-5.72979e-11
5.52349e-11
-6.83182e-11
7.03214e-11
-7.89308e-11
8.70482e-11
-8.88248e-11
1.05392e-10
-9.77061e-11
1.25328e-10
-1.05313e-10
1.46822e-10
-1.1141e-10
1.69833e-10
-1.15773e-10
1.94304e-10
-1.18177e-10
2.20159e-10
-1.18369e-10
2.47287e-10
-1.16045e-10
2.75522e-10
-1.10807e-10
3.04614e-10
-1.02075e-10
3.34157e-10
-8.89792e-11
3.63533e-10
-7.01403e-11
3.91821e-10
-4.35008e-11
4.17549e-10
-5.30176e-12
4.3918e-10
4.95381e-11
4.56314e-10
1.27421e-10
2.31937e-10
4.65077e-10
1.94405e-12
7.46142e-12
6.2479e-12
-1.25299e-11
1.28465e-11
-2.94272e-11
2.15867e-11
-4.35633e-11
3.23174e-11
-5.68547e-11
4.49289e-11
-6.99089e-11
5.93531e-11
-8.27418e-11
7.55477e-11
-9.51248e-11
9.34813e-11
-1.06758e-10
1.13123e-10
-1.17347e-10
1.34436e-10
-1.26626e-10
1.57375e-10
-1.34348e-10
1.81879e-10
-1.40276e-10
2.07863e-10
-1.4416e-10
2.35209e-10
-1.45715e-10
2.63749e-10
-1.44584e-10
2.93233e-10
-1.40291e-10
3.23313e-10
-1.32154e-10
3.53497e-10
-1.19163e-10
3.83148e-10
-9.97914e-11
4.1139e-10
-7.17419e-11
4.37567e-10
-3.14781e-11
4.61353e-10
2.57523e-11
4.83501e-10
1.05273e-10
2.11711e-10
5.03728e-10
2.03796e-12
5.42389e-12
6.59934e-12
-1.70908e-11
1.36035e-11
-3.64309e-11
2.28896e-11
-5.28489e-11
3.42974e-11
-6.82618e-11
4.77055e-11
-8.33164e-11
6.30338e-11
-9.80695e-11
8.0229e-11
-1.12319e-10
9.92494e-11
-1.25778e-10
1.20054e-10
-1.38151e-10
1.42597e-10
-1.49168e-10
1.66819e-10
-1.58569e-10
1.92642e-10
-1.66099e-10
2.19964e-10
-1.71482e-10
2.48643e-10
-1.74394e-10
2.78485e-10
-1.74425e-10
3.09225e-10
-1.71031e-10
3.40518e-10
-1.63447e-10
3.71938e-10
-1.50582e-10
4.03006e-10
-1.3086e-10
4.33291e-10
-1.02026e-10
4.62759e-10
-6.09458e-11
4.92038e-10
-3.52543e-12
5.22848e-10
7.44626e-11
1.76812e-10
5.57747e-10
2.11555e-12
3.30876e-12
6.89376e-12
-2.18685e-11
1.42455e-11
-4.37821e-11
2.40068e-11
-6.26096e-11
3.60101e-11
-8.02645e-11
5.01234e-11
-9.74292e-11
6.62551e-11
-1.14201e-10
8.43408e-11
-1.30404e-10
1.04329e-10
-1.45765e-10
1.2617e-10
-1.59992e-10
1.49809e-10
-1.72806e-10
1.75179e-10
-1.83938e-10
2.02194e-10
-1.93114e-10
2.30747e-10
-2.00034e-10
2.60693e-10
-2.0434e-10
2.91852e-10
-2.05583e-10
3.23993e-10
-2.03172e-10
3.5685e-10
-1.96303e-10
3.90144e-10
-1.83876e-10
4.23665e-10
-1.6438e-10
4.5741e-10
-1.3577e-10
4.91852e-10
-9.53876e-11
5.28344e-10
-4.00168e-11
5.69226e-10
3.35806e-11
1.27926e-10
6.18112e-10
2.17711e-12
1.13207e-12
7.13093e-12
-2.68218e-11
1.47717e-11
-5.14223e-11
2.49358e-11
-7.27732e-11
3.74503e-11
-9.27784e-11
5.21744e-11
-1.12153e-10
6.90058e-11
-1.31031e-10
8.78705e-11
-1.49268e-10
1.08708e-10
-1.66603e-10
1.31463e-10
-1.82747e-10
1.56075e-10
-1.97417e-10
1.82473e-10
-2.10336e-10
2.10576e-10
-2.21216e-10
2.40281e-10
-2.29738e-10
2.71465e-10
-2.35524e-10
3.03983e-10
-2.38101e-10
3.37676e-10
-2.36864e-10
3.72389e-10
-2.31015e-10
4.08021e-10
-2.19508e-10
4.44617e-10
-2.00975e-10
4.82519e-10
-1.73672e-10
5.22598e-10
-1.35466e-10
5.66539e-10
-8.39576e-11
6.16977e-10
-1.68576e-11
6.73001e-11
6.77603e-10
2.22316e-12
-1.09067e-12
7.31291e-12
-3.19111e-11
1.51849e-11
-5.92938e-11
2.56795e-11
-8.32672e-11
3.86207e-11
-1.05719e-10
5.38602e-11
-1.27392e-10
7.12872e-11
-1.48458e-10
9.08194e-11
-1.688e-10
1.1239e-10
-1.88173e-10
1.35939e-10
-2.06295e-10
1.61405e-10
-2.22882e-10
1.88722e-10
-2.37652e-10
2.17814e-10
-2.50309e-10
2.486e-10
-2.60523e-10
2.80987e-10
-2.67911e-10
3.14884e-10
-2.71998e-10
3.50213e-10
-2.72192e-10
3.86939e-10
-2.67741e-10
4.25126e-10
-2.57695e-10
4.65028e-10
-2.40876e-10
5.07221e-10
-2.15865e-10
5.52791e-10
-1.81036e-10
6.03528e-10
-1.34694e-10
6.62042e-10
-7.53712e-11
-2.31262e-12
7.31655e-10
2.25482e-12
-3.34507e-12
7.44281e-12
-3.70986e-11
1.54905e-11
-6.73409e-11
2.62451e-11
-9.40213e-11
3.95296e-11
-1.19003e-10
5.51907e-11
-1.43052e-10
7.31104e-11
-1.66377e-10
9.32e-11
-1.88889e-10
1.15389e-10
-2.10361e-10
1.39615e-10
-2.30521e-10
1.6582e-10
-2.49086e-10
1.93944e-10
-2.65775e-10
2.23927e-10
-2.80291e-10
2.5571e-10
-2.92306e-10
2.8924e-10
-3.01441e-10
3.24483e-10
-3.07241e-10
3.61441e-10
-3.09149e-10
4.00186e-10
-3.06486e-10
4.40918e-10
-2.98426e-10
4.84035e-10
-2.83993e-10
5.30249e-10
-2.62078e-10
5.80716e-10
-2.31503e-10
6.37167e-10
-1.91145e-10
7.01976e-10
-1.40179e-10
-7.84323e-11
7.78096e-10
2.27305e-12
-5.6177e-12
7.5246e-12
-4.23497e-11
1.56955e-11
-7.55113e-11
2.66428e-11
-1.04968e-10
4.01905e-11
-1.3255e-10
5.61817e-11
-1.59043e-10
7.44938e-11
-1.84688e-10
9.50337e-11
-2.09428e-10
1.17728e-10
-2.33055e-10
1.42516e-10
-2.55308e-10
1.69343e-10
-2.75913e-10
1.9816e-10
-2.94592e-10
2.28923e-10
-3.11054e-10
2.61602e-10
-3.24984e-10
2.96181e-10
-3.36019e-10
3.32678e-10
-3.43737e-10
3.71165e-10
-3.47637e-10
4.11802e-10
-3.47123e-10
4.54882e-10
-3.41506e-10
5.00896e-10
-3.30006e-10
5.50609e-10
-3.11791e-10
6.05153e-10
-2.86047e-10
6.66101e-10
-2.52093e-10
7.35489e-10
-2.09567e-10
-1.58677e-10
8.15734e-10
2.27922e-12
-7.89651e-12
7.5625e-12
-4.76324e-11
1.58083e-11
-8.37566e-11
2.68849e-11
-1.16044e-10
4.06193e-11
-1.46284e-10
5.68536e-11
-1.75276e-10
7.54615e-11
-2.03296e-10
9.63473e-11
-2.30314e-10
1.19437e-10
-2.56145e-10
1.44671e-10
-2.80542e-10
1.72002e-10
-3.03243e-10
2.01391e-10
-3.2398e-10
2.32813e-10
-3.42476e-10
2.66262e-10
-3.58432e-10
3.01757e-10
-3.71514e-10
3.39361e-10
-3.81341e-10
3.792e-10
-3.87476e-10
4.21496e-10
-3.89418e-10
4.666e-10
-3.86609e-10
5.15046e-10
-3.78451e-10
5.676e-10
-3.64345e-10
6.25316e-10
-3.43763e-10
6.89571e-10
-3.16347e-10
7.62053e-10
-2.82049e-10
-2.41307e-10
8.44682e-10
2.27444e-12
-1.01705e-11
7.5612e-12
-5.29187e-11
1.58376e-11
-9.20324e-11
2.69848e-11
-1.27191e-10
4.08347e-11
-1.60133e-10
5.72291e-11
-1.9167e-10
7.60405e-11
-2.22106e-10
9.71716e-11
-2.51444e-10
1.20548e-10
-2.79521e-10
1.46114e-10
-3.06107e-10
1.73828e-10
-3.30956e-10
2.03662e-10
-3.53814e-10
2.35607e-10
-3.74421e-10
2.69679e-10
-3.92503e-10
3.05925e-10
-4.0776e-10
3.44444e-10
-4.19859e-10
3.85398e-10
-4.2843e-10
4.29046e-10
-4.33066e-10
4.75768e-10
-4.33332e-10
5.26104e-10
-4.28787e-10
5.80786e-10
-4.19026e-10
6.40762e-10
-4.03739e-10
7.07211e-10
-3.82796e-10
7.81513e-10
-3.56351e-10
-3.2496e-10
8.65166e-10
2.26016e-12
-1.24303e-11
7.5252e-12
-5.81833e-11
1.57924e-11
-1.00299e-10
2.69566e-11
-1.38354e-10
4.08555e-11
-1.74032e-10
5.73327e-11
-2.08147e-10
7.62598e-11
-2.41033e-10
9.7539e-11
-2.72723e-10
1.21097e-10
-3.03078e-10
1.46881e-10
-3.31891e-10
1.74854e-10
-3.58929e-10
2.05e-10
-3.83959e-10
2.37322e-10
-4.06743e-10
2.71853e-10
-4.27033e-10
3.08661e-10
-4.44568e-10
3.47868e-10
-4.59065e-10
3.8966e-10
-4.70221e-10
4.3431e-10
-4.77716e-10
4.82205e-10
-4.81226e-10
5.33863e-10
-4.80445e-10
5.89956e-10
-4.7512e-10
6.51323e-10
-4.65105e-10
7.18956e-10
-4.50429e-10
7.93973e-10
-4.31368e-10
-4.08526e-10
8.77539e-10
2.23735e-12
-1.46672e-11
7.45896e-12
-6.34044e-11
1.56815e-11
-1.08521e-10
2.6814e-11
-1.49486e-10
4.07011e-11
-1.87918e-10
5.71884e-11
-2.24633e-10
7.61483e-11
-2.59992e-10
9.7483e-11
-2.94057e-10
1.2112e-10
-3.26715e-10
1.47009e-10
-3.57779e-10
1.75118e-10
-3.87038e-10
2.05438e-10
-4.14278e-10
2.37983e-10
-4.39287e-10
2.72796e-10
-4.61846e-10
3.09962e-10
-4.81733e-10
3.49612e-10
-4.98715e-10
3.91942e-10
-5.12551e-10
4.37227e-10
-5.23001e-10
4.85838e-10
-5.29837e-10
5.38256e-10
-5.32862e-10
5.95082e-10
-5.31946e-10
6.57041e-10
-5.27064e-10
7.24961e-10
-5.18349e-10
7.9974e-10
-5.06147e-10
-4.91069e-10
8.82284e-10
2.20723e-12
-1.6874e-11
7.36641e-12
-6.8563e-11
1.55131e-11
-1.16667e-10
2.65703e-11
-1.60543e-10
4.03894e-11
-2.01737e-10
5.68199e-11
-2.41063e-10
7.57346e-11
-2.78906e-10
9.70363e-11
-3.15358e-10
1.20653e-10
-3.50331e-10
1.46537e-10
-3.83662e-10
1.74659e-10
-4.15159e-10
2.05015e-10
-4.44633e-10
2.37624e-10
-4.71896e-10
2.72539e-10
-4.96761e-10
3.09848e-10
-5.19042e-10
3.49688e-10
-5.38554e-10
3.92252e-10
-5.55114e-10
4.37803e-10
-5.68552e-10
4.86686e-10
-5.78719e-10
5.39333e-10
-5.85509e-10
5.9627e-10
-5.88883e-10
6.5811e-10
-5.88904e-10
7.25537e-10
-5.85776e-10
7.99269e-10
-5.79878e-10
-5.71805e-10
8.80004e-10
2.17058e-12
-1.90442e-11
7.25131e-12
-7.36433e-11
1.52948e-11
-1.2471e-10
2.62372e-11
-1.71485e-10
3.99378e-11
-2.15437e-10
5.62491e-11
-2.57374e-10
7.50459e-11
-2.97703e-10
9.62307e-11
-3.36542e-10
1.19733e-10
-3.73832e-10
1.45503e-10
-4.09432e-10
1.73517e-10
-4.43173e-10
2.03772e-10
-4.74887e-10
2.36289e-10
-5.04413e-10
2.71123e-10
-5.31594e-10
3.08362e-10
-5.56281e-10
3.4814e-10
-5.78331e-10
3.9064e-10
-5.97614e-10
4.36104e-10
-6.14016e-10
4.84841e-10
-6.27456e-10
5.3723e-10
-6.37898e-10
5.93721e-10
-6.45373e-10
6.54825e-10
-6.50008e-10
7.21095e-10
-6.52046e-10
7.93099e-10
-6.51882e-10
-6.5008e-10
8.71375e-10
2.1285e-12
-2.11722e-11
7.11693e-12
-7.86312e-11
1.50332e-11
-1.32626e-10
2.58258e-11
-1.82277e-10
3.93614e-11
-2.28972e-10
5.54966e-11
-2.73509e-10
7.41073e-11
-3.16313e-10
9.50965e-11
-3.5753e-10
1.18393e-10
-3.97128e-10
1.43949e-10
-4.34987e-10
1.71738e-10
-4.70961e-10
2.01757e-10
-5.04906e-10
2.34029e-10
-5.36684e-10
2.68604e-10
-5.66169e-10
3.05567e-10
-5.93244e-10
3.45041e-10
-6.17805e-10
3.87193e-10
-6.39765e-10
4.32238e-10
-6.59061e-10
4.80447e-10
-6.75664e-10
5.32143e-10
-6.89593e-10
5.87701e-10
-7.00931e-10
6.47537e-10
-7.09844e-10
7.12094e-10
-7.16602e-10
7.81811e-10
-7.21599e-10
-7.25362e-10
8.57093e-10
2.08159e-12
-2.32534e-11
6.96611e-12
-8.35152e-11
1.4734e-11
-1.40393e-10
2.53455e-11
-1.92887e-10
3.86743e-11
-2.423e-10
5.45808e-11
-2.89414e-10
7.29425e-11
-3.34674e-10
9.36624e-11
-3.7825e-10
1.16669e-10
-4.20134e-10
1.41912e-10
-4.6023e-10
1.69364e-10
-4.98413e-10
1.99021e-10
-5.34562e-10
2.30901e-10
-5.68563e-10
2.65049e-10
-6.00316e-10
3.0154e-10
-6.29735e-10
3.40483e-10
-6.56748e-10
3.82025e-10
-6.81306e-10
4.26351e-10
-7.03387e-10
4.7369e-10
-7.23003e-10
5.24309e-10
-7.40213e-10
5.78515e-10
-7.55136e-10
6.36637e-10
-7.67967e-10
6.9902e-10
-7.78984e-10
7.65993e-10
-7.88572e-10
-7.97221e-10
8.37852e-10
2.03077e-12
-2.52837e-11
6.80081e-12
-8.82847e-11
1.44022e-11
-1.47994e-10
2.48046e-11
-2.03289e-10
3.78885e-11
-2.55383e-10
5.35185e-11
-3.05044e-10
7.15732e-11
-3.52728e-10
9.19554e-11
-3.98631e-10
1.14592e-10
-4.4277e-10
1.39431e-10
-4.85068e-10
1.66443e-10
-5.25425e-10
1.95618e-10
-5.63736e-10
2.26968e-10
-5.99913e-10
2.60531e-10
-6.33879e-10
2.96369e-10
-6.65573e-10
3.34575e-10
-6.94953e-10
3.7527e-10
-7.22001e-10
4.18609e-10
-7.46726e-10
4.64778e-10
-7.69171e-10
5.13992e-10
-7.89427e-10
5.66492e-10
-8.07636e-10
6.2253e-10
-8.24005e-10
6.82364e-10
-8.38818e-10
7.4623e-10
-8.52439e-10
-8.65321e-10
8.1433e-10
1.97612e-12
-2.72594e-11
6.62347e-12
-9.29315e-11
1.40419e-11
-1.55412e-10
2.42102e-11
-2.13457e-10
3.70153e-11
-2.68188e-10
5.2325e-11
-3.20353e-10
7.00196e-11
-3.70422e-10
9.00013e-11
-4.18613e-10
1.12195e-10
-4.64963e-10
1.36546e-10
-5.09419e-10
1.63021e-10
-5.51898e-10
1.91603e-10
-5.92318e-10
2.22298e-10
-6.30608e-10
2.55131e-10
-6.66712e-10
2.90153e-10
-7.00594e-10
3.27435e-10
-7.32235e-10
3.67074e-10
-7.6164e-10
4.09192e-10
-7.88844e-10
4.53936e-10
-8.13914e-10
5.01469e-10
-8.3696e-10
5.51971e-10
-8.58138e-10
6.05627e-10
-8.77661e-10
6.62615e-10
-8.95806e-10
7.23094e-10
-9.12917e-10
-9.29408e-10
7.87181e-10
1.91838e-12
-2.91773e-11
6.43537e-12
-9.74479e-11
1.36568e-11
-1.62633e-10
2.35688e-11
-2.23368e-10
3.60642e-11
-2.80683e-10
5.10144e-11
-3.35303e-10
6.83008e-11
-3.87708e-10
8.78249e-11
-4.38136e-10
1.09509e-10
-4.86647e-10
1.33296e-10
-5.33205e-10
1.59144e-10
-5.77747e-10
1.87034e-10
-6.20207e-10
2.16959e-10
-6.60533e-10
2.48935e-10
-6.98688e-10
2.82995e-10
-7.34653e-10
3.1919e-10
-7.6843e-10
3.57593e-10
-8.00043e-10
3.98294e-10
-8.29544e-10
4.41398e-10
-8.57018e-10
4.87023e-10
-8.82585e-10
5.35294e-10
-9.06408e-10
5.86334e-10
-9.28701e-10
6.40254e-10
-9.49726e-10
6.9714e-10
-9.69803e-10
-9.89306e-10
7.57038e-10
1.85784e-12
-3.10347e-11
6.23807e-12
-1.01828e-10
1.325e-11
-1.69644e-10
2.28861e-11
-2.33004e-10
3.50446e-11
-2.92841e-10
4.96002e-11
-3.49858e-10
6.64353e-11
-4.04542e-10
8.54504e-11
-4.57151e-10
1.06565e-10
-5.07761e-10
1.29718e-10
-5.56357e-10
1.54863e-10
-6.02891e-10
1.8197e-10
-6.47314e-10
2.11026e-10
-6.89588e-10
2.42032e-10
-7.29693e-10
2.75004e-10
-7.67625e-10
3.09974e-10
-8.034e-10
3.46989e-10
-8.37058e-10
3.86108e-10
-8.68663e-10
4.274e-10
-8.98309e-10
4.70939e-10
-9.26123e-10
5.168e-10
-9.5227e-10
5.65052e-10
-9.76953e-10
6.15745e-10
-1.00042e-09
6.68903e-10
-1.02296e-09
-1.04491e-09
7.2451e-10
1.79503e-12
-3.28292e-11
6.03276e-12
-1.06065e-10
1.28244e-11
-1.76435e-10
2.21675e-11
-2.42346e-10
3.3965e-11
-3.04637e-10
4.80951e-11
-3.63987e-10
6.44409e-11
-4.20887e-10
8.29018e-11
-4.75611e-10
1.03395e-10
-5.28254e-10
1.25853e-10
-5.78815e-10
1.50226e-10
-6.27263e-10
1.76474e-10
-6.73562e-10
2.04573e-10
-7.17687e-10
2.34512e-10
-7.59631e-10
2.66291e-10
-7.99403e-10
2.99921e-10
-8.3703e-10
3.35425e-10
-8.72561e-10
3.72833e-10
-9.0607e-10
4.12178e-10
-9.37654e-10
4.53497e-10
-9.67442e-10
4.9682e-10
-9.95593e-10
5.42166e-10
-1.0223e-09
5.89535e-10
-1.04779e-09
6.38895e-10
-1.07232e-09
-1.0962e-09
6.90177e-10
1.73014e-12
-3.45589e-11
5.82075e-12
-1.10155e-10
1.23829e-11
-1.82997e-10
2.1418e-11
-2.51381e-10
3.28341e-11
-3.16053e-10
4.65118e-11
-3.77664e-10
6.23353e-11
-4.3671e-10
8.0203e-11
-4.93478e-10
1.00029e-10
-5.48079e-10
1.21741e-10
-6.00527e-10
1.45282e-10
-6.50803e-10
1.70605e-10
-6.98884e-10
1.97676e-10
-7.44757e-10
2.26468e-10
-7.88424e-10
2.56968e-10
-8.29902e-10
2.89167e-10
-8.69229e-10
3.23064e-10
-9.06458e-10
3.58662e-10
-9.41667e-10
3.95964e-10
-9.74956e-10
4.34971e-10
-1.00645e-09
4.75673e-10
-1.0363e-09
5.18049e-10
-1.06467e-09
5.62051e-10
-1.09179e-09
6.07602e-10
-1.11787e-09
-1.14318e-09
6.54585e-10
1.66371e-12
-3.62221e-11
5.60316e-12
-1.14094e-10
1.19281e-11
-1.89321e-10
2.06431e-11
-2.60095e-10
3.166e-11
-3.27069e-10
4.48628e-11
-3.90866e-10
6.01365e-11
-4.51984e-10
7.73779e-11
-5.10719e-10
9.64981e-11
-5.67198e-10
1.17421e-10
-6.2145e-10
1.40082e-10
-6.73464e-10
1.64427e-10
-7.23229e-10
1.9041e-10
-7.7074e-10
2.17994e-10
-8.16007e-10
2.47148e-10
-8.59056e-10
2.77846e-10
-8.99926e-10
3.10066e-10
-9.38678e-10
3.43786e-10
-9.75387e-10
3.78982e-10
-1.01015e-09
4.15622e-10
-1.04309e-09
4.53665e-10
-1.07434e-09
4.93049e-10
-1.10406e-09
5.33692e-10
-1.13243e-09
5.75476e-10
-1.15966e-09
-1.18595e-09
6.18245e-10
1.59595e-12
-3.78175e-11
5.3813e-12
-1.17878e-10
1.14629e-11
-1.95402e-10
1.98476e-11
-2.68479e-10
3.04514e-11
-3.37673e-10
4.3161e-11
-4.03575e-10
5.78622e-11
-4.66684e-10
7.44509e-11
-5.27307e-10
9.28351e-11
-5.85582e-10
1.12934e-10
-6.41548e-10
1.34678e-10
-6.95207e-10
1.58003e-10
-7.46554e-10
1.82854e-10
-7.95591e-10
2.09182e-10
-8.42335e-10
2.36942e-10
-8.86815e-10
2.66092e-10
-9.29075e-10
2.96589e-10
-9.69175e-10
3.2839e-10
-1.00719e-09
3.61447e-10
-1.04321e-09
3.95701e-10
-1.07734e-09
4.31081e-10
-1.10972e-09
4.67496e-10
-1.14047e-09
5.0483e-10
-1.16977e-09
5.42936e-10
-1.19776e-09
-1.22464e-09
5.81625e-10
1.52744e-12
-3.93444e-11
5.15636e-12
-1.21507e-10
1.099e-11
-2.01235e-10
1.9037e-11
-2.76526e-10
2.92168e-11
-3.47852e-10
4.14191e-11
-4.15777e-10
5.55307e-11
-4.80795e-10
7.14464e-11
-5.43222e-10
8.90716e-11
-6.03207e-10
1.08321e-10
-6.60798e-10
1.29119e-10
-7.16004e-10
1.51394e-10
-7.68828e-10
1.75082e-10
-8.19279e-10
2.00123e-10
-8.67376e-10
2.26459e-10
-9.13151e-10
2.54031e-10
-9.56648e-10