/*--------------------------------*- C++ -*----------------------------------*\
  =========                 |
  \\      /  F ield         | OpenFOAM: The Open Source CFD Toolbox
   \\    /   O peration     | Website:  https://openfoam.org
    \\  /    A nd           | Version:  13
     \\/     M anipulation  |
\*---------------------------------------------------------------------------*/
FoamFile
{
    format      ascii;
    class       volVectorField;
    location    "22";
    object      U;
}
// * * * * * * * * * * * * * * * * * * * * * * * * * * * * * * * * * * * * * //

dimensions      [0 1 -1 0 0 0 0];

internalField   nonuniform List<vector> 
6440
(
(-6.18469e-07 1.18112e-06 0)
(-1.59118e-06 1.64199e-06 0)
(-2.83388e-06 1.5e-06 -3.52223e-20)
(-3.68873e-06 1.56828e-06 3.51147e-20)
(-4.45701e-06 1.8312e-06 0)
(-5.02835e-06 2.14793e-06 -6.96881e-20)
(-5.37474e-06 2.46881e-06 6.92696e-20)
(-5.48744e-06 2.76303e-06 0)
(-5.33712e-06 2.99161e-06 1.36664e-19)
(-4.90176e-06 3.11675e-06 -1.35463e-19)
(-4.17969e-06 3.10482e-06 -1.34169e-19)
(-3.18968e-06 2.92849e-06 3.83597e-23)
(-1.97686e-06 2.57226e-06 7.31608e-23)
(-6.1126e-07 2.03554e-06 1.29546e-19)
(8.50577e-07 1.32401e-06 1.27627e-19)
(2.36213e-06 4.44996e-07 -1.25885e-19)
(3.79372e-06 -5.56818e-07 0)
(5.00628e-06 -1.58246e-06 2.43325e-19)
(5.96149e-06 -2.55419e-06 -4.18299e-22)
(6.63712e-06 -3.39273e-06 -2.35207e-19)
(6.97962e-06 -4.0057e-06 2.30413e-19)
(6.89208e-06 -4.11966e-06 -4.52416e-19)
(7.17932e-06 -3.64694e-06 2.21967e-19)
(5.95424e-06 -8.83063e-07 -2.17165e-19)
(1.74573e-06 2.3471e-06 1.18197e-22)
(-5.34765e-07 3.12632e-06 0)
(-1.2695e-06 4.20386e-06 0)
(-2.17545e-06 3.66141e-06 -3.73055e-20)
(-2.79332e-06 3.50612e-06 3.7193e-20)
(-3.37159e-06 3.70627e-06 0)
(-3.81889e-06 3.99893e-06 -7.38329e-20)
(-4.1167e-06 4.2777e-06 7.33945e-20)
(-4.25639e-06 4.51684e-06 0)
(-4.21533e-06 4.68912e-06 0)
(-3.96624e-06 4.7566e-06 0)
(-3.49782e-06 4.69014e-06 0)
(-2.81418e-06 4.46946e-06 -1.40848e-19)
(-1.93896e-06 4.08754e-06 1.39266e-19)
(-9.12528e-07 3.55268e-06 0)
(2.17808e-07 2.88577e-06 1.35577e-19)
(1.38689e-06 2.11218e-06 -1.33746e-19)
(2.56323e-06 1.25329e-06 0)
(3.74876e-06 3.60002e-07 0)
(4.87132e-06 -4.70519e-07 2.53946e-19)
(5.63843e-06 -1.06033e-06 -2.49858e-19)
(5.86893e-06 -1.34888e-06 2.44433e-19)
(5.57261e-06 -1.13027e-06 -2.40232e-19)
(6.1809e-06 -5.73087e-07 -2.34664e-19)
(6.52197e-06 2.11235e-06 6.08507e-22)
(1.12693e-06 6.78285e-06 1.68748e-19)
(-4.77122e-07 4.61271e-06 0)
(-1.20266e-06 5.83419e-06 0)
(-1.91881e-06 4.87465e-06 -3.74999e-20)
(-2.37646e-06 4.50091e-06 3.73932e-20)
(-2.81515e-06 4.56978e-06 0)
(-3.20649e-06 4.76868e-06 -7.42956e-20)
(-3.49374e-06 4.97924e-06 1.47818e-19)
(-3.59406e-06 5.11233e-06 -7.34581e-20)
(-3.51705e-06 5.15623e-06 1.46062e-19)
(-3.25052e-06 5.10525e-06 -1.44862e-19)
(-2.76708e-06 4.93622e-06 -1.43713e-19)
(-2.05472e-06 4.63267e-06 -3.41491e-23)
(-1.11901e-06 4.19379e-06 1.40816e-19)
(1.28951e-08 3.63141e-06 1.39145e-19)
(1.29355e-06 2.96746e-06 -1.14636e-22)
(2.69605e-06 2.21919e-06 -1.35584e-19)
(4.23618e-06 1.3989e-06 0)
(5.90235e-06 5.31232e-07 2.62347e-19)
(7.52657e-06 -2.93903e-07 -2.58484e-19)
(8.64977e-06 -9.02321e-07 0)
(9.07004e-06 -1.27919e-06 2.48183e-19)
(8.67586e-06 -1.28375e-06 -4.87345e-19)
(8.6006e-06 -1.16642e-06 2.39125e-19)
(8.39361e-06 3.76876e-07 -2.33334e-19)
(9.81789e-07 5.9735e-06 1.73448e-19)
(-4.7924e-07 5.99808e-06 0)
(-1.25484e-06 7.0013e-06 0)
(-1.85767e-06 5.59782e-06 -3.75235e-20)
(-2.22457e-06 5.02637e-06 3.74228e-20)
(-2.56389e-06 4.96811e-06 0)
(-2.84226e-06 5.06537e-06 -7.44236e-20)
(-3.12713e-06 5.24909e-06 1.48134e-19)
(-3.32827e-06 5.42793e-06 -7.365e-20)
(-3.30698e-06 5.51912e-06 0)
(-3.06032e-06 5.52061e-06 0)
(-2.60288e-06 5.45273e-06 0)
(-1.90642e-06 5.30055e-06 -1.4316e-19)
(-9.52341e-07 5.05262e-06 1.4172e-19)
(2.49061e-07 4.70994e-06 1.40181e-19)
(1.6741e-06 4.27279e-06 -1.38572e-19)
(3.3185e-06 3.73241e-06 0)
(5.2334e-06 3.03248e-06 2.69236e-19)
(7.43869e-06 2.13022e-06 -2.65629e-19)
(9.66064e-06 1.13591e-06 0)
(1.12804e-05 2.63647e-07 0)
(1.20255e-05 -4.75448e-07 0)
(1.16913e-05 -1.00127e-06 0)
(1.10377e-05 -1.52148e-06 0)
(1.04504e-05 -1.30672e-06 -2.35964e-19)
(1.18712e-06 5.06866e-06 3.22334e-22)
(-4.91435e-07 7.42943e-06 0)
(-1.33606e-06 7.95858e-06 0)
(-1.87003e-06 6.11095e-06 -3.7398e-20)
(-2.19886e-06 5.39242e-06 3.73034e-20)
(-2.50721e-06 5.2722e-06 0)
(-2.75382e-06 5.33235e-06 -7.42549e-20)
(-2.99666e-06 5.48982e-06 1.47858e-19)
(-3.24784e-06 5.73549e-06 -7.35459e-20)
(-3.40307e-06 5.98529e-06 0)
(-3.32034e-06 6.15894e-06 0)
(-2.98564e-06 6.2895e-06 0)
(-2.41056e-06 6.38217e-06 -1.43402e-19)
(-1.55138e-06 6.40865e-06 1.42038e-19)
(-3.8435e-07 6.34948e-06 1.40643e-19)
(1.09188e-06 6.18541e-06 -1.39114e-19)
(2.87896e-06 5.87551e-06 0)
(5.0568e-06 5.31632e-06 2.70709e-19)
(7.72162e-06 4.33643e-06 -2.67267e-19)
(1.05482e-05 3.05659e-06 0)
(1.27636e-05 1.78651e-06 0)
(1.40131e-05 5.55455e-07 0)
(1.39868e-05 -5.42613e-07 0)
(1.3061e-05 -1.62084e-06 0)
(1.23925e-05 -2.57931e-06 -2.37784e-19)
(1.48474e-06 4.36072e-06 1.80987e-19)
(-4.95644e-07 8.91321e-06 0)
(-1.4161e-06 8.81479e-06 0)
(-1.91344e-06 6.56146e-06 -3.71444e-20)
(-2.24555e-06 5.75194e-06 3.70557e-20)
(-2.56709e-06 5.62506e-06 0)
(-2.84199e-06 5.71432e-06 -7.38288e-20)
(-3.11029e-06 5.91207e-06 1.47067e-19)
(-3.40982e-06 6.20586e-06 -7.3184e-20)
(-3.71659e-06 6.59957e-06 1.459e-19)
(-3.84161e-06 7.00706e-06 -1.4489e-19)
(-3.69391e-06 7.36492e-06 0)
(-3.30546e-06 7.71643e-06 -1.43129e-19)
(-2.62118e-06 8.02934e-06 -9.7847e-23)
(-1.57523e-06 8.24861e-06 2.81174e-19)
(-1.4062e-07 8.33243e-06 -1.39155e-19)
(1.70753e-06 8.21555e-06 0)
(4.00933e-06 7.78664e-06 2.71267e-19)
(6.96937e-06 6.78157e-06 -6.88169e-22)
(1.0386e-05 5.13633e-06 -9.03015e-22)
(1.33117e-05 3.35178e-06 -2.5958e-19)
(1.52235e-05 1.56325e-06 0)
(1.56916e-05 -9.71368e-08 0)
(1.47098e-05 -1.58878e-06 0)
(1.41387e-05 -3.4748e-06 -2.38884e-19)
(1.79079e-06 3.89255e-06 1.839e-19)
(-4.94446e-07 1.04246e-05 0)
(-1.4944e-06 9.61812e-06 0)
(-1.9844e-06 7.02517e-06 -3.67823e-20)
(-2.35481e-06 6.18128e-06 3.66995e-20)
(-2.71928e-06 6.09116e-06 7.33483e-20)
(-3.04602e-06 6.24532e-06 -1.46259e-19)
(-3.36641e-06 6.51323e-06 1.45836e-19)
(-3.69439e-06 6.87198e-06 -7.26013e-20)
(-4.0403e-06 7.35517e-06 0)
(-4.34395e-06 7.94805e-06 1.44159e-19)
(-4.42774e-06 8.53656e-06 -1.4312e-19)
(-4.21858e-06 9.13651e-06 -1.42411e-19)
(-3.72259e-06 9.72381e-06 1.412e-19)
(-2.85361e-06 1.02164e-05 1.40127e-19)
(-1.53179e-06 1.05306e-05 -1.3876e-19)
(2.80409e-07 1.05911e-05 0)
(2.64072e-06 1.02626e-05 2.71026e-19)
(5.69337e-06 9.30382e-06 -2.67922e-19)
(9.47056e-06 7.40609e-06 0)
(1.31246e-05 5.05058e-06 2.58755e-19)
(1.58238e-05 2.66648e-06 -2.55403e-19)
(1.69701e-05 4.35032e-07 0)
(1.61445e-05 -1.39049e-06 0)
(1.5762e-05 -3.9578e-06 -2.39339e-19)
(2.08684e-06 3.73474e-06 4.88785e-22)
(-4.91725e-07 1.19411e-05 0)
(-1.56905e-06 1.04015e-05 0)
(-2.07409e-06 7.55067e-06 -3.63297e-20)
(-2.50193e-06 6.72607e-06 3.62525e-20)
(-2.91685e-06 6.70523e-06 0)
(-3.29145e-06 6.93621e-06 -7.2354e-20)
(-3.64506e-06 7.26663e-06 7.20505e-20)
(-3.98254e-06 7.67406e-06 0)
(-4.34255e-06 8.19865e-06 0)
(-4.7113e-06 8.8725e-06 0)
(-4.89352e-06 9.64145e-06 0)
(-4.80434e-06 1.04582e-05 -1.41311e-19)
(-4.47473e-06 1.1295e-05 1.40175e-19)
(-3.80295e-06 1.20583e-05 0)
(-2.66455e-06 1.26262e-05 0)
(-9.80244e-07 1.28865e-05 0)
(1.28947e-06 1.27246e-05 0)
(4.24699e-06 1.19075e-05 0)
(8.1633e-06 1.0004e-05 2.62669e-19)
(1.24802e-05 7.09308e-06 -2.59556e-19)
(1.60772e-05 4.04309e-06 0)
(1.80154e-05 1.22468e-06 0)
(1.75187e-05 -9.29254e-07 0)
(1.73571e-05 -4.045e-06 -2.39225e-19)
(2.38582e-06 3.85996e-06 1.88182e-19)
(-4.90051e-07 1.34416e-05 0)
(-1.63788e-06 1.11847e-05 0)
(-2.17547e-06 8.16165e-06 -3.58023e-20)
(-2.67091e-06 7.40327e-06 3.57305e-20)
(-3.13843e-06 7.473e-06 0)
(-3.54907e-06 7.77492e-06 -7.13711e-20)
(-3.90945e-06 8.14192e-06 1.42323e-19)
(-4.21343e-06 8.55353e-06 -7.09076e-20)
(-4.49879e-06 9.06819e-06 0)
(-4.77585e-06 9.75949e-06 0)
(-4.91613e-06 1.06204e-05 1.40598e-19)
(-4.85619e-06 1.15521e-05 -2.79494e-19)
(-4.61242e-06 1.25697e-05 1.38821e-19)
(-4.09465e-06 1.35824e-05 1.38091e-19)
(-3.16399e-06 1.44405e-05 -1.36882e-19)
(-1.68302e-06 1.49756e-05 0)
(4.28787e-07 1.50437e-05 -2.68517e-19)
(3.23686e-06 1.44595e-05 2.65745e-19)
(6.91932e-06 1.28462e-05 0)
(1.15323e-05 9.72961e-06 0)
(1.60652e-05 5.91327e-06 0)
(1.89351e-05 2.4149e-06 2.48334e-19)
(1.88911e-05 -1.46656e-07 -2.45222e-19)
(1.89324e-05 -3.7881e-06 -2.38614e-19)
(2.68183e-06 4.21263e-06 1.89626e-19)
(-4.88605e-07 1.49019e-05 0)
(-1.69185e-06 1.19724e-05 0)
(-2.26854e-06 8.85784e-06 0)
(-2.82656e-06 8.20261e-06 0)
(-3.33243e-06 8.37319e-06 0)
(-3.74911e-06 8.73112e-06 0)
(-4.07052e-06 9.10001e-06 0)
(-4.27814e-06 9.46806e-06 0)
(-4.39487e-06 9.90549e-06 -1.3971e-19)
(-4.45644e-06 1.05127e-05 1.38939e-19)
(-4.45859e-06 1.13391e-05 0)
(-4.30388e-06 1.22869e-05 0)
(-3.96573e-06 1.33922e-05 0)
(-3.46494e-06 1.4605e-05 0)
(-2.68573e-06 1.57768e-05 0)
(-1.45033e-06 1.66999e-05 0)
(3.97208e-07 1.71544e-05 0)
(2.93108e-06 1.69497e-05 -2.63411e-19)
(6.24208e-06 1.57912e-05 2.60706e-19)
(1.0738e-05 1.30349e-05 0)
(1.59531e-05 8.6294e-06 -2.51898e-19)
(1.98389e-05 4.27495e-06 2.48993e-19)
(2.03053e-05 1.17131e-06 0)
(2.05909e-05 -3.13098e-06 0)
(3.05024e-06 4.78126e-06 0)
(-4.83902e-07 1.62902e-05 0)
(-1.71616e-06 1.2749e-05 0)
(-2.32269e-06 9.61049e-06 0)
(-2.92003e-06 9.08025e-06 0)
(-3.43277e-06 9.34865e-06 0)
(-3.81439e-06 9.73948e-06 0)
(-4.04597e-06 1.00717e-05 6.89743e-20)
(-4.10277e-06 1.0349e-05 -6.86907e-20)
(-3.98961e-06 1.06495e-05 -1.3749e-19)
(-3.74511e-06 1.108e-05 1.36772e-19)
(-3.43591e-06 1.17323e-05 1.3675e-19)
(-2.97097e-06 1.25922e-05 -1.35888e-19)
(-2.34125e-06 1.36776e-05 0)
(-1.6661e-06 1.49937e-05 1.34919e-19)
(-8.84154e-07 1.64426e-05 2.08044e-22)
(1.65325e-07 1.78321e-05 -1.32944e-19)
(1.69799e-06 1.88767e-05 0)
(3.88611e-06 1.92816e-05 -2.61096e-19)
(6.82714e-06 1.87515e-05 2.58546e-19)
(1.07556e-05 1.67824e-05 0)
(1.59867e-05 1.24628e-05 0)
(2.07742e-05 7.1463e-06 2.45773e-19)
(2.18654e-05 3.37366e-06 -2.42986e-19)
(2.24555e-05 -1.78821e-06 0)
(3.57061e-06 5.62728e-06 0)
(-4.70545e-07 1.75643e-05 0)
(-1.69062e-06 1.3476e-05 0)
(-2.29526e-06 1.03602e-05 0)
(-2.88303e-06 9.95705e-06 0)
(-3.34539e-06 1.03065e-05 0)
(-3.62855e-06 1.07035e-05 0)
(-3.70204e-06 1.09705e-05 0)
(-3.53657e-06 1.11315e-05 0)
(-3.12838e-06 1.12782e-05 0)
(-2.50594e-06 1.15141e-05 0)
(-1.73383e-06 1.19371e-05 -1.34514e-19)
(-7.5798e-07 1.25921e-05 1.3371e-19)
(3.67344e-07 1.34905e-05 0)
(1.46162e-06 1.4735e-05 0)
(2.51187e-06 1.63238e-05 0)
(3.59576e-06 1.81445e-05 0)
(4.89361e-06 1.99242e-05 0)
(6.65303e-06 2.1252e-05 0)
(9.06654e-06 2.1683e-05 0)
(1.22174e-05 2.07559e-05 0)
(1.67836e-05 1.74127e-05 0)
(2.21217e-05 1.15988e-05 -2.44012e-19)
(2.40206e-05 6.74614e-06 2.41379e-19)
(2.47942e-05 4.34904e-07 0)
(4.30905e-06 6.78526e-06 0)
(-4.42005e-07 1.86706e-05 0)
(-1.59145e-06 1.40891e-05 0)
(-2.13475e-06 1.10122e-05 0)
(-2.63131e-06 1.07103e-05 0)
(-2.95054e-06 1.11045e-05 6.64016e-20)
(-3.03769e-06 1.14748e-05 -6.62249e-20)
(-2.85547e-06 1.16582e-05 0)
(-2.3716e-06 1.17018e-05 0)
(-1.57565e-06 1.17131e-05 -1.32514e-19)
(-4.81128e-07 1.17971e-05 2.64231e-19)
(8.60415e-07 1.2039e-05 4.50196e-22)
(2.44281e-06 1.24763e-05 -1.31353e-19)
(4.216e-06 1.3001e-05 0)
(6.01068e-06 1.39481e-05 0)
(7.6905e-06 1.54749e-05 1.30289e-19)
(9.18453e-06 1.75665e-05 -1.29308e-19)
(1.05358e-05 2.00536e-05 -2.57343e-19)
(1.19508e-05 2.25259e-05 -6.6489e-23)
(1.3714e-05 2.43768e-05 2.52978e-19)
(1.60477e-05 2.49498e-05 2.49731e-19)
(1.9601e-05 2.3207e-05 -2.47329e-19)
(2.45161e-05 1.80932e-05 2.41998e-19)
(2.67822e-05 1.20919e-05 -2.39511e-19)
(2.77745e-05 3.88466e-06 0)
(5.37927e-06 8.26566e-06 0)
(-3.91773e-07 1.95456e-05 0)
(-1.39566e-06 1.45001e-05 0)
(-1.78977e-06 1.14383e-05 0)
(-2.07866e-06 1.11733e-05 0)
(-2.12027e-06 1.15455e-05 0)
(-1.86879e-06 1.18382e-05 0)
(-1.2891e-06 1.19164e-05 0)
(-3.46433e-07 1.18473e-05 0)
(9.78307e-07 1.17471e-05 -1.29804e-19)
(2.67595e-06 1.17034e-05 1.29225e-19)
(4.67474e-06 1.17309e-05 0)
(6.79414e-06 1.19557e-05 0)
(9.24839e-06 1.22857e-05 0)
(1.20826e-05 1.28759e-05 0)
(1.48116e-05 1.41458e-05 0)
(1.71607e-05 1.62768e-05 0)
(1.90292e-05 1.92928e-05 0)
(2.04712e-05 2.29337e-05 -2.51773e-19)
(2.17656e-05 2.65575e-05 2.4965e-19)
(2.32307e-05 2.92334e-05 0)
(2.55205e-05 2.96899e-05 0)
(2.90388e-05 2.63836e-05 0)
(3.07193e-05 2.00812e-05 0)
(3.16826e-05 8.85712e-06 0)
(6.90507e-06 9.95078e-06 0)
(-3.14938e-07 2.01216e-05 0)
(-1.0874e-06 1.46082e-05 0)
(-1.22071e-06 1.14914e-05 0)
(-1.15422e-06 1.11543e-05 0)
(-7.43355e-07 1.13985e-05 0)
(3.59698e-08 1.15253e-05 0)
(1.19806e-06 1.14369e-05 0)
(2.7668e-06 1.1206e-05 0)
(4.75321e-06 1.09433e-05 0)
(7.07638e-06 1.07997e-05 0)
(9.73522e-06 1.08269e-05 1.26798e-19)
(1.27299e-05 1.10574e-05 -1.26146e-19)
(1.61271e-05 1.15421e-05 0)
(2.00138e-05 1.20475e-05 0)
(2.40286e-05 1.30507e-05 1.25801e-19)
(2.77044e-05 1.49689e-05 -1.24947e-19)
(3.07238e-05 1.80932e-05 -2.49475e-19)
(3.28755e-05 2.25159e-05 2.47567e-19)
(3.4175e-05 2.79044e-05 0)
(3.49298e-05 3.32047e-05 0)
(3.58143e-05 3.67706e-05 0)
(3.72489e-05 3.62875e-05 2.37404e-19)
(3.65756e-05 3.10396e-05 -4.68336e-19)
(3.63909e-05 1.6193e-05 2.30913e-19)
(8.93144e-06 1.17313e-05 0)
(-2.08954e-07 2.03382e-05 0)
(-6.60491e-07 1.43274e-05 0)
(-4.04566e-07 1.10464e-05 0)
(1.87222e-07 1.04949e-05 0)
(1.24877e-06 1.04639e-05 0)
(2.76206e-06 1.02593e-05 0)
(4.69048e-06 9.86367e-06 -6.20418e-20)
(7.02018e-06 9.41694e-06 6.18442e-20)
(9.84754e-06 9.03479e-06 -1.24038e-19)
(1.31962e-05 8.89384e-06 1.23535e-19)
(1.69565e-05 9.1138e-06 -1.23923e-19)
(2.10204e-05 9.70318e-06 1.23316e-19)
(2.53313e-05 1.07106e-05 0)
(3.0199e-05 1.18133e-05 -1.23522e-19)
(3.55495e-05 1.28269e-05 1.2277e-19)
(4.079e-05 1.4565e-05 0)
(4.54981e-05 1.75403e-05 0)
(4.92738e-05 2.2104e-05 -2.43882e-19)
(5.17003e-05 2.84417e-05 -4.05436e-22)
(5.26377e-05 3.61407e-05 2.40474e-19)
(5.22585e-05 4.35643e-05 0)
(5.06651e-05 4.7128e-05 -2.34926e-19)
(4.57403e-05 4.45183e-05 2.32828e-19)
(4.27505e-05 2.61939e-05 0)
(1.16296e-05 1.3874e-05 -1.90427e-19)
(-7.40848e-08 2.01459e-05 0)
(-1.05529e-07 1.35736e-05 0)
(6.83172e-07 9.9633e-06 0)
(1.97199e-06 8.98682e-06 0)
(3.83673e-06 8.45107e-06 0)
(6.25238e-06 7.74581e-06 0)
(9.21508e-06 6.868e-06 0)
(1.2664e-05 6.0432e-06 0)
(1.6717e-05 5.57355e-06 0)
(2.13708e-05 5.55808e-06 0)
(2.64567e-05 6.0816e-06 0)
(3.19328e-05 7.17717e-06 0)
(3.76803e-05 8.91122e-06 0)
(4.34986e-05 1.13265e-05 0)
(4.98734e-05 1.3707e-05 0)
(5.68716e-05 1.59804e-05 0)
(6.3641e-05 1.91584e-05 0)
(6.96286e-05 2.37745e-05 0)
(7.43928e-05 3.01922e-05 0)
(7.71914e-05 3.83882e-05 0)
(7.63691e-05 4.85612e-05 0)
(7.15767e-05 5.71477e-05 0)
(6.09562e-05 5.9642e-05 0)
(5.32978e-05 3.79674e-05 0)
(1.6323e-05 1.54586e-05 0)
(7.1015e-08 1.94976e-05 1.32671e-20)
(5.47696e-07 1.22302e-05 1.47895e-20)
(1.98239e-06 8.02967e-06 -2.95402e-20)
(4.09193e-06 6.35472e-06 5.91161e-20)
(6.97176e-06 5.03862e-06 -5.90163e-20)
(1.05314e-05 3.56967e-06 0)
(1.47177e-05 1.97319e-06 5.90528e-20)
(1.96523e-05 6.17734e-07 5.91597e-20)
(2.53794e-05 -1.96699e-07 -2.35615e-19)
(3.17364e-05 -3.26859e-07 1.17529e-19)
(3.86024e-05 3.81579e-07 1.178e-19)
(4.5897e-05 2.03895e-06 -1.17273e-19)
(5.35279e-05 4.65063e-06 -1.17629e-19)
(6.11992e-05 8.27942e-06 2.34563e-19)
(6.88512e-05 1.30103e-05 5.74847e-22)
(7.71722e-05 1.78906e-05 1.17988e-19)
(8.60277e-05 2.26095e-05 -2.33299e-19)
(9.45295e-05 2.82962e-05 -2.34195e-19)
(0.00010176 3.5261e-05 4.66207e-19)
(0.000107243 4.33912e-05 -2.31938e-19)
(0.000108832 5.26106e-05 0)
(0.000103756 6.34025e-05 2.29891e-19)
(8.66431e-05 7.20547e-05 -4.55353e-19)
(7.17178e-05 4.84056e-05 2.25448e-19)
(2.50585e-05 1.62561e-05 1.91093e-19)
(2.04001e-07 1.83909e-05 0)
(1.22688e-06 1.02132e-05 0)
(3.39898e-06 5.13453e-06 0)
(6.48142e-06 2.4877e-06 0)
(1.04973e-05 1.40468e-07 0)
(1.5346e-05 -2.31728e-06 0)
(2.11204e-05 -4.68756e-06 0)
(2.7884e-05 -6.67724e-06 0)
(3.5536e-05 -8.06741e-06 0)
(4.39959e-05 -8.64256e-06 0)
(5.31597e-05 -8.21391e-06 0)
(6.28943e-05 -6.59531e-06 0)
(7.29763e-05 -3.5864e-06 0)
(8.33059e-05 1.01255e-06 0)
(9.37385e-05 7.49978e-06 0)
(0.000103969 1.59191e-05 0)
(0.00011468 2.49888e-05 0)
(0.000125643 3.41124e-05 0)
(0.000135564 4.42015e-05 -2.28143e-19)
(0.000143253 5.63581e-05 2.26509e-19)
(0.000148054 6.91207e-05 0)
(0.000147218 8.18322e-05 0)
(0.000128339 9.67057e-05 0)
(0.000113328 6.83412e-05 0)
(5.42427e-05 1.04655e-05 0)
(3.02031e-07 1.68591e-05 0)
(1.91751e-06 7.44062e-06 0)
(4.91197e-06 1.11031e-06 0)
(9.06183e-06 -2.9199e-06 0)
(1.43844e-05 -6.59182e-06 0)
(2.093e-05 -1.03572e-05 0)
(2.85777e-05 -1.39482e-05 0)
(3.72736e-05 -1.71038e-05 0)
(4.70358e-05 -1.95393e-05 0)
(5.77852e-05 -2.10178e-05 0)
(6.94467e-05 -2.13172e-05 -1.11524e-19)
(8.19772e-05 -2.02355e-05 1.11066e-19)
(9.53571e-05 -1.75312e-05 0)
(0.00010946 -1.28498e-05 0)
(0.000124 -5.86747e-06 0)
(0.000138473 4.03049e-06 0)
(0.000152252 1.77533e-05 0)
(0.000165953 3.44966e-05 0)
(0.000180261 5.40992e-05 0)
(0.000193653 7.68864e-05 0)
(0.000203939 0.00010461 0)
(0.000210637 0.000135721 -2.2393e-19)
(0.000199564 0.000171714 2.22135e-19)
(0.000191455 0.000163446 0)
(0.000174822 -3.44254e-05 0)
(3.79742e-07 1.52764e-05 0)
(2.46333e-06 4.36708e-06 0)
(6.09952e-06 -3.51809e-06 0)
(1.12764e-05 -9.15653e-06 0)
(1.78616e-05 -1.44007e-05 0)
(2.57743e-05 -1.97409e-05 0)
(3.5007e-05 -2.50464e-05 0)
(4.55076e-05 -2.99343e-05 0)
(5.72362e-05 -3.40962e-05 0)
(7.01503e-05 -3.72579e-05 0)
(8.42148e-05 -3.91624e-05 0)
(9.94094e-05 -3.9592e-05 0)
(0.000115704 -3.83613e-05 0)
(0.000133021 -3.53139e-05 0)
(0.000151316 -3.01823e-05 0)
(0.000170685 -2.25348e-05 0)
(0.000190912 -1.15979e-05 0)
(0.000211675 3.63925e-06 0)
(0.000232227 2.34006e-05 0)
(0.000252967 4.80981e-05 0)
(0.000276049 7.91054e-05 0)
(0.000301463 0.000117012 0)
(0.000326414 0.000155689 0)
(0.000332763 0.000178453 0)
(0.000116974 -2.80957e-05 0)
(3.99889e-07 1.378e-05 0)
(2.78147e-06 1.2317e-06 0)
(6.9484e-06 -8.3356e-06 0)
(1.28631e-05 -1.5584e-05 0)
(2.03572e-05 -2.24534e-05 0)
(2.93368e-05 -2.93862e-05 0)
(3.97688e-05 -3.62796e-05 0)
(5.16172e-05 -4.28231e-05 0)
(6.48536e-05 -4.86871e-05 0)
(7.94573e-05 -5.35736e-05 0)
(9.54077e-05 -5.72197e-05 0)
(0.00011268 -5.93999e-05 0)
(0.000131247 -5.9918e-05 0)
(0.000151066 -5.85849e-05 0)
(0.000172112 -5.51731e-05 0)
(0.000194409 -4.9465e-05 0)
(0.000217945 -4.12745e-05 0)
(0.000242811 -3.0017e-05 0)
(0.00026904 -1.48514e-05 0)
(0.000296574 6.06244e-06 0)
(0.000325596 3.37457e-05 0)
(0.000355893 6.81992e-05 0)
(0.000385468 0.00010918 0)
(0.00041143 0.000152106 0)
(0.000421949 0.000185284 0)
(4.27786e-07 1.21291e-05 0)
(3.06585e-06 -2.28592e-06 0)
(7.7122e-06 -1.37239e-05 0)
(1.42936e-05 -2.27528e-05 0)
(2.26223e-05 -3.1291e-05 0)
(3.2589e-05 -3.98348e-05 0)
(4.41398e-05 -4.83041e-05 0)
(5.72413e-05 -5.64101e-05 0)
(7.18719e-05 -6.38259e-05 0)
(8.8016e-05 -7.02534e-05 0)
(0.000105654 -7.54355e-05 0)
(0.000124763 -7.91448e-05 0)
(0.000145315 -8.11702e-05 0)
(0.000167276 -8.13052e-05 0)
(0.000190608 -7.93173e-05 0)
(0.000215281 -7.49616e-05 0)
(0.000241254 -6.79423e-05 0)
(0.000268496 -5.77991e-05 0)
(0.000296931 -4.39487e-05 0)
(0.000326333 -2.53228e-05 0)
(0.00035613 -2.77081e-07 0)
(0.000385287 3.35431e-05 0)
(0.000412613 7.97808e-05 0)
(0.000438448 0.000144213 0)
(0.000456971 0.000233991 0)
(4.53629e-07 1.03537e-05 0)
(3.31188e-06 -6.14108e-06 0)
(8.38146e-06 -1.96348e-05 0)
(1.55623e-05 -3.05946e-05 0)
(2.46477e-05 -4.09344e-05 0)
(3.55152e-05 -5.11988e-05 0)
(4.80962e-05 -6.13427e-05 0)
(6.2351e-05 -7.1098e-05 0)
(7.82549e-05 -8.01477e-05 0)
(9.57865e-05 -8.81972e-05 0)
(0.000114922 -9.49882e-05 0)
(0.000135632 -0.00010029 0)
(0.00015788 -0.000103885 0)
(0.000181618 -0.000105557 0)
(0.000206778 -0.000105068 0)
(0.000233271 -0.000102136 0)
(0.000260965 -9.6407e-05 0)
(0.000289662 -8.73643e-05 0)
(0.000319058 -7.42678e-05 0)
(0.00034867 -5.59126e-05 0)
(0.00037776 -3.03196e-05 0)
(0.000405227 5.84677e-06 0)
(0.000430108 5.78261e-05 0)
(0.000452496 0.000132721 0)
(0.000468835 0.000237302 0)
(4.77758e-07 8.46187e-06 0)
(3.53026e-06 -1.03051e-05 0)
(8.9778e-06 -2.60162e-05 0)
(1.66985e-05 -3.90455e-05 0)
(2.64721e-05 -5.13088e-05 0)
(3.81623e-05 -6.33939e-05 0)
(5.16883e-05 -7.52959e-05 0)
(6.70005e-05 -8.67724e-05 0)
(8.40645e-05 -9.75177e-05 0)
(0.000102851 -0.000107238 0)
(0.000123328 -0.000115671 0)
(0.000145456 -0.000122576 0)
(0.000169181 -0.000127725 0)
(0.000194436 -0.000130883 0)
(0.00022112 -0.000131785 0)
(0.000249096 -0.000130105 0)
(0.000278165 -0.00012541 0)
(0.000308038 -0.000117076 0)
(0.000338313 -0.000104163 0)
(0.00036844 -8.52137e-05 0)
(0.000397706 -5.79367e-05 0)
(0.000425382 -1.87914e-05 0)
(0.000451044 3.74391e-05 0)
(0.00047494 0.000117081 0)
(0.000496309 0.000225871 0)
(4.9899e-07 6.46762e-06 0)
(3.71858e-06 -1.47468e-05 0)
(9.4957e-06 -3.28309e-05 0)
(1.76947e-05 -4.80751e-05 0)
(2.80832e-05 -6.23971e-05 0)
(4.0514e-05 -7.64247e-05 0)
(5.48942e-05 -9.01948e-05 0)
(7.11619e-05 -0.000103492 0)
(8.92733e-05 -0.000116022 0)
(0.000109189 -0.000127492 0)
(0.000130867 -0.000137631 0)
(0.000154256 -0.000146191 0)
(0.000179292 -0.000152924 0)
(0.000205886 -0.000157569 0)
(0.000233921 -0.000159824 0)
(0.000263232 -0.000159307 0)
(0.000293599 -0.000155505 0)
(0.000324724 -0.000147689 0)
(0.000356228 -0.000134794 0)
(0.000387659 -0.000115237 0)
(0.000418558 -8.66693e-05 0)
(0.000448674 -4.56939e-05 0)
(0.000478224 1.21974e-05 0)
(0.000508156 9.20667e-05 0)
(0.000540026 0.000198369 0)
(5.17088e-07 4.38712e-06 0)
(3.87465e-06 -1.94265e-05 0)
(9.93198e-06 -4.00232e-05 0)
(1.85436e-05 -5.76166e-05 0)
(2.94707e-05 -7.41231e-05 0)
(4.25555e-05 -9.02084e-05 0)
(5.76933e-05 -0.00010595 0)
(7.48118e-05 -0.000121159 0)
(9.38555e-05 -0.000135555 0)
(0.000114777 -0.000148845 0)
(0.000137525 -0.000160752 0)
(0.000162042 -0.000171015 0)
(0.000188253 -0.000179368 0)
(0.000216064 -0.000185523 0)
(0.000245353 -0.000189138 0)
(0.000275961 -0.000189781 0)
(0.000307686 -0.000186878 0)
(0.000340281 -0.000179635 0)
(0.000373469 -0.000166937 0)
(0.000406991 -0.00014721 0)
(0.000440706 -0.000118256 0)
(0.000474805 -7.71119e-05 0)
(0.000510097 -2.01244e-05 0)
(0.000548218 5.65601e-05 0)
(0.00059186 0.000155985 0)
(5.3207e-07 2.23707e-06 0)
(3.9989e-06 -2.43024e-05 0)
(1.02855e-05 -4.75339e-05 0)
(1.92441e-05 -6.75973e-05 0)
(3.06306e-05 -8.64032e-05 0)
(4.42795e-05 -0.000104651 0)
(6.00763e-05 -0.000122458 0)
(7.7937e-05 -0.000139663 0)
(9.77983e-05 -0.000155997 0)
(0.000119604 -0.000171173 0)
(0.000143298 -0.000184907 0)
(0.000168818 -0.000196926 0)
(0.00019609 -0.000206949 0)
(0.000225022 -0.000214664 0)
(0.000255504 -0.000219701 0)
(0.000287405 -0.000221594 0)
(0.00032057 -0.000219738 0)
(0.000354839 -0.000213319 0)
(0.000390073 -0.000201249 0)
(0.00042622 -0.000182066 0)
(0.00046343 -0.000153851 0)
(0.000502251 -0.000114181 0)
(0.000543884 -6.02512e-05 0)
(0.000590373 1.06991e-05 0)
(0.000644735 0.000100583 0)
(5.44064e-07 3.34517e-08 0)
(4.09207e-06 -2.93335e-05 0)
(1.05595e-05 -5.53042e-05 0)
(1.97987e-05 -7.79444e-05 0)
(3.1566e-05 -9.91519e-05 0)
(4.56887e-05 -0.000119657 0)
(6.20436e-05 -0.000139613 0)
(8.05388e-05 -0.000158888 0)
(0.000101102 -0.00017723 0)
(0.000123674 -0.000194353 0)
(0.000148194 -0.000209973 0)
(0.000174601 -0.000223809 0)
(0.000202825 -0.000235567 0)
(0.00023279 -0.000244922 0)
(0.000264407 -0.000251487 0)
(0.000297585 -0.000254787 0)
(0.000332235 -0.000254213 0)
(0.000368294 -0.000248981 0)
(0.000405761 -0.000238081 0)
(0.000444768 -0.000220227 0)
(0.000485691 -0.00019383 0)
(0.000529307 -0.00015701 0)
(0.000576998 -0.00010774 0)
(0.000630915 -4.4188e-05 0)
(0.000693998 3.4727e-05 0)
(5.53131e-07 -2.20867e-06 0)
(4.15665e-06 -3.44809e-05 0)
(1.07575e-05 -6.32771e-05 0)
(2.02143e-05 -8.85859e-05 0)
(3.22844e-05 -0.000112285 0)
(4.67917e-05 -0.00013513 0)
(6.36062e-05 -0.000157311 0)
(8.26284e-05 -0.000178726 0)
(0.000103782 -0.000199138 0)
(0.000127002 -0.000218268 0)
(0.00015223 -0.000235835 0)
(0.000179409 -0.000251553 0)
(0.000208479 -0.000265125 0)
(0.000239382 -0.000276221 0)
(0.00027206 -0.000284454 0)
(0.000306466 -0.000289355 0)
(0.00034258 -0.000290346 0)
(0.00038043 -0.0002867 0)
(0.000420135 -0.000277525 0)
(0.000461972 -0.000261737 0)
(0.000506462 -0.000238075 0)
(0.000554499 -0.00020515 0)
(0.00060749 -0.000161585 0)
(0.000667473 -0.000106286 0)
(0.000737128 -3.88407e-05 0)
(5.59467e-07 -4.47536e-06 0)
(4.1944e-06 -3.97085e-05 0)
(1.08856e-05 -7.13984e-05 0)
(2.04988e-05 -9.94525e-05 0)
(3.27978e-05 -0.00012572 0)
(4.76033e-05 -0.000150977 0)
(6.47807e-05 -0.00017545 0)
(8.42261e-05 -0.000199065 0)
(0.000105858 -0.000221605 0)
(0.000129612 -0.000242802 0)
(0.000155432 -0.000262377 0)
(0.000183266 -0.000280048 0)
(0.000213069 -0.000295521 0)
(0.000244802 -0.000308471 0)
(0.000278441 -0.000318525 0)
(0.000313983 -0.000325239 0)
(0.000351467 -0.000328082 0)
(0.000391 -0.00032641 0)
(0.000432794 -0.000319464 0)
(0.000477222 -0.000306365 0)
(0.000524887 -0.00028615 0)
(0.000576712 -0.00025784 0)
(0.000634027 -0.000220566 0)
(0.000698637 -0.000173782 0)
(0.000772804 -0.00011756 0)
(5.63174e-07 -6.7538e-06 0)
(4.20848e-06 -4.49827e-05 0)
(1.09491e-05 -7.96176e-05 0)
(2.06631e-05 -0.000110479 0)
(3.31201e-05 -0.000139378 0)
(4.81415e-05 -0.00016711 0)
(6.55898e-05 -0.000193932 0)
(8.53568e-05 -0.000219802 0)
(0.00010736 -0.000244522 0)
(0.000131535 -0.000267839 0)
(0.000157828 -0.000289481 0)
(0.000186197 -0.000309177 0)
(0.000216611 -0.00032664 0)
(0.000249051 -0.00034156 0)
(0.000283523 -0.000353587 0)
(0.000320063 -0.000362318 0)
(0.000358759 -0.00036728 0)
(0.000399777 -0.000367923 0)
(0.000443392 -0.000363624 0)
(0.000490031 -0.000353695 0)
(0.00054033 -0.000337433 0)
(0.000595181 -0.000314181 0)
(0.00065579 -0.000283447 0)
(0.000723698 -0.000245066 0)
(0.000800742 -0.000199396 0)
(5.64503e-07 -9.03247e-06 0)
(4.20094e-06 -5.02736e-05 0)
(1.09555e-05 -8.78883e-05 0)
(2.07176e-05 -0.000121604 0)
(3.32674e-05 -0.000153187 0)
(4.84272e-05 -0.000183443 0)
(6.60579e-05 -0.000212663 0)
(8.60502e-05 -0.000240833 0)
(0.00010832 -0.00026778 0)
(0.000132803 -0.000293264 0)
(0.000159452 -0.00031703 0)
(0.000188232 -0.000338816 0)
(0.000219125 -0.000358352 0)
(0.000252132 -0.00037535 0)
(0.000287282 -0.000389492 0)
(0.000324644 -0.000400419 0)
(0.000364343 -0.000407726 0)
(0.000406582 -0.000410961 0)
(0.000451671 -0.000409626 0)
(0.00050006 -0.000403209 0)
(0.000552375 -0.000391215 0)
(0.000609448 -0.000373242 0)
(0.000672342 -0.000349064 0)
(0.000742346 -0.000318764 0)
(0.000820927 -0.000282861 0)
(5.63516e-07 -1.13012e-05 0)
(4.17503e-06 -5.55544e-05 0)
(1.09104e-05 -9.61684e-05 0)
(2.06743e-05 -0.000132771 0)
(3.32561e-05 -0.000167076 0)
(4.84818e-05 -0.000199896 0)
(6.62124e-05 -0.000231551 0)
(8.63367e-05 -0.00026206 0)
(0.000108771 -0.00029127 0)
(0.000133453 -0.000318964 0)
(0.000160339 -0.0003449 0)
(0.000189403 -0.000368834 0)
(0.000220636 -0.000390517 0)
(0.000254055 -0.000409686 0)
(0.000289709 -0.00042606 0)
(0.000327689 -0.00043933 0)
(0.000368143 -0.00044916 0)
(0.000411295 -0.000455187 0)
(0.000457468 -0.000457035 0)
(0.000507108 -0.000454336 0)
(0.000560805 -0.000446768 0)
(0.00061931 -0.000434118 0)
(0.000683544 -0.000416348 0)
(0.000754572 -0.000393691 0)
(0.000833559 -0.000366745 0)
(5.60431e-07 -1.3551e-05 0)
(4.13249e-06 -6.08017e-05 0)
(1.08211e-05 -0.00010442 0)
(2.05437e-05 -0.00014393 0)
(3.31028e-05 -0.000180982 0)
(4.83275e-05 -0.000216394 0)
(6.60795e-05 -0.000250513 0)
(8.62483e-05 -0.000283387 0)
(0.000108749 -0.000314891 0)
(0.000133523 -0.000344825 0)
(0.000160528 -0.000372968 0)
(0.000189744 -0.000399097 0)
(0.000221173 -0.000422984 0)
(0.000254841 -0.000444397 0)
(0.00029081 -0.000463092 0)
(0.000329185 -0.000478812 0)
(0.000370126 -0.000491287 0)
(0.000413863 -0.000500238 0)
(0.000460715 -0.000505392 0)
(0.000511102 -0.000506502 0)
(0.000565564 -0.000503386 0)
(0.000624763 -0.000495968 0)
(0.000689482 -0.000484338 0)
(0.000760595 -0.000468821 0)
(0.000839024 -0.000450033 0)
(5.55269e-07 -1.5774e-05 0)
(4.0762e-06 -6.59954e-05 0)
(1.06924e-05 -0.000112611 0)
(2.0337e-05 -0.000155033 0)
(3.28228e-05 -0.000194847 0)
(4.79847e-05 -0.000232867 0)
(6.5686e-05 -0.000269467 0)
(8.58154e-05 -0.000304724 0)
(0.00010829 -0.000338539 0)
(0.00013305 -0.000370735 0)
(0.000160058 -0.000401111 0)
(0.000189297 -0.000429465 0)
(0.000220773 -0.000455595 0)
(0.000254522 -0.000479301 0)
(0.000290612 -0.000500376 0)
(0.000329151 -0.000518614 0)
(0.000370303 -0.000533803 0)
(0.000414293 -0.00054574 0)
(0.000461419 -0.00055424 0)
(0.00051207 -0.000559157 0)
(0.000566722 -0.000560413 0)
(0.000625948 -0.000558034 0)
(0.000690401 -0.000552196 0)
(0.000760793 -0.000543271 0)
(0.000837848 -0.000531867 0)
(5.4827e-07 -1.79634e-05 0)
(4.0075e-06 -7.1118e-05 0)
(1.05308e-05 -0.000120711 0)
(2.00631e-05 -0.000166041 0)
(3.2431e-05 -0.000208617 0)
(4.74735e-05 -0.000249251 0)
(6.50558e-05 -0.000288338 0)
(8.50681e-05 -0.000325985 0)
(0.000107426 -0.000362119 0)
(0.000132072 -0.000396585 0)
(0.000158969 -0.000429205 0)
(0.000188102 -0.0004598 0)
(0.000219481 -0.000488193 0)
(0.000253142 -0.000514215 0)
(0.000289156 -0.000537698 0)
(0.00032763 -0.000558479 0)
(0.000368721 -0.000576402 0)
(0.000412639 -0.000591328 0)
(0.000459658 -0.000603146 0)
(0.00051012 -0.000611788 0)
(0.000564441 -0.000617256 0)
(0.000623104 -0.000619651 0)
(0.000686645 -0.000619202 0)
(0.000755635 -0.000616302 0)
(0.000830639 -0.000611533 0)
(5.3947e-07 -2.01132e-05 0)
(3.92891e-06 -7.61547e-05 0)
(1.034e-05 -0.000128696 0)
(1.97315e-05 -0.000176916 0)
(3.19401e-05 -0.000222245 0)
(4.68112e-05 -0.000265486 0)
(6.42126e-05 -0.000307057 0)
(8.40337e-05 -0.000347089 0)
(0.000106192 -0.000385538 0)
(0.000130628 -0.000422271 0)
(0.000157304 -0.000457132 0)
(0.000186207 -0.000489966 0)
(0.000217345 -0.000520622 0)
(0.000250755 -0.000548959 0)
(0.000286502 -0.000574846 0)
(0.000324688 -0.000598159 0)
(0.000365457 -0.000618792 0)
(0.000408998 -0.000636658 0)
(0.000455554 -0.000651706 0)