/*--------------------------------*- C++ -*----------------------------------*\
  =========                 |
  \\      /  F ield         | OpenFOAM: The Open Source CFD Toolbox
   \\    /   O peration     | Website:  https://openfoam.org
    \\  /    A nd           | Version:  13
     \\/     M anipulation  |
\*---------------------------------------------------------------------------*/
FoamFile
{
    format      ascii;
    class       volScalarField;
    location    "19";
    object      p;
}
// * * * * * * * * * * * * * * * * * * * * * * * * * * * * * * * * * * * * * //

dimensions      [0 2 -2 0 0 0 0];

internalField   nonuniform List<scalar> 
6440
(
0.000743166
0.000743155
0.000743147
0.000743134
0.000743107
0.000743051
0.000742951
0.000742789
0.000742547
0.000742212
0.000741769
0.000741211
0.000740536
0.000739751
0.000738871
0.000737917
0.000736916
0.000735896
0.000734884
0.000733901
0.000732955
0.000732049
0.000731203
0.000730414
0.000729758
0.000743212
0.000743219
0.000743244
0.000743282
0.000743326
0.000743364
0.000743383
0.000743365
0.000743292
0.000743146
0.000742907
0.000742557
0.00074208
0.000741468
0.000740715
0.000739819
0.000738791
0.000737642
0.000736391
0.000735056
0.000733659
0.000732218
0.000730804
0.000729489
0.000728363
0.000743206
0.000743235
0.000743298
0.000743392
0.000743514
0.000743651
0.00074379
0.000743913
0.000744001
0.000744031
0.000743979
0.000743819
0.000743526
0.000743078
0.000742453
0.00074164
0.000740623
0.000739406
0.000738004
0.000736438
0.000734734
0.000732928
0.000731118
0.00072946
0.00072811
0.000743074
0.000743121
0.000743218
0.000743361
0.000743547
0.000743765
0.000744
0.000744233
0.000744444
0.000744607
0.000744696
0.000744679
0.000744526
0.000744203
0.00074368
0.000742934
0.000741945
0.000740712
0.000739247
0.00073757
0.000735711
0.000733711
0.000731675
0.000729803
0.000728297
0.000742775
0.00074284
0.000742965
0.000743151
0.000743393
0.000743679
0.000743993
0.000744319
0.000744632
0.000744907
0.000745114
0.000745218
0.000745182
0.000744967
0.000744539
0.000743868
0.000742922
0.000741703
0.00074023
0.000738516
0.000736592
0.000734493
0.00073232
0.000730294
0.000728653
0.000742297
0.000742377
0.000742528
0.000742754
0.000743047
0.000743396
0.000743785
0.000744195
0.000744601
0.000744977
0.00074529
0.000745506
0.000745582
0.000745477
0.000745153
0.000744571
0.000743697
0.000742535
0.000741088
0.000739376
0.000737426
0.000735269
0.000732996
0.00073084
0.000729081
0.000741639
0.000741734
0.00074191
0.000742171
0.000742513
0.000742921
0.000743378
0.000743867
0.00074436
0.000744831
0.000745247
0.000745571
0.000745762
0.000745776
0.000745571
0.000745103
0.000744335
0.000743263
0.000741874
0.000740187
0.000738227
0.000736022
0.000733658
0.000731379
0.000729508
0.000740809
0.000740917
0.000741115
0.00074141
0.000741795
0.000742257
0.000742779
0.000743341
0.000743917
0.00074448
0.000744996
0.000745429
0.000745739
0.000745882
0.000745813
0.000745486
0.000744854
0.000743896
0.000742598
0.000740959
0.000738998
0.000736747
0.000734291
0.000731889
0.000729904
0.000739817
0.000739936
0.000740154
0.000740479
0.000740903
0.000741414
0.000741995
0.000742624
0.000743279
0.00074393
0.000744544
0.000745088
0.000745523
0.000745804
0.000745883
0.000745714
0.000745247
0.000744438
0.000743259
0.000741692
0.000739747
0.000737453
0.000734904
0.000732376
0.000730276
0.000738678
0.000738807
0.00073904
0.000739389
0.000739847
0.000740401
0.000741033
0.000741725
0.000742452
0.000743186
0.000743896
0.000744548
0.00074511
0.000745535
0.000745775
0.000745779
0.000745492
0.000744863
0.000743846
0.000742381
0.00074048
0.00073816
0.000735521
0.000732871
0.000730654
0.000737408
0.000737544
0.000737789
0.000738157
0.00073864
0.000739227
0.000739902
0.000740647
0.000741436
0.000742246
0.000743046
0.000743805
0.000744492
0.000745071
0.000745481
0.00074567
0.000745581
0.00074515
0.000744315
0.000743016
0.000741205
0.000738885
0.00073617
0.000733403
0.000731074
0.000736028
0.000736168
0.00073642
0.000736798
0.000737297
0.000737906
0.00073861
0.000739393
0.000740234
0.00074111
0.000741997
0.000742864
0.000743677
0.000744399
0.000744987
0.000745372
0.000745496
0.000745287
0.000744665
0.000743555
0.000741899
0.000739651
0.00073689
0.000734016
0.000731594
0.00073456
0.0007347
0.000734952
0.000735332
0.000735834
0.00073645
0.000737167
0.000737971
0.000738848
0.00073978
0.000740743
0.000741708
0.000742642
0.000743507
0.000744271
0.00074486
0.000745209
0.000745242
0.000744867
0.000743992
0.000742542
0.000740448
0.00073773
0.000734777
0.000732279
0.000733027
0.000733164
0.00073341
0.000733781
0.000734272
0.000734877
0.000735588
0.000736395
0.000737289
0.000738256
0.000739274
0.000740318
0.000741358
0.000742361
0.00074329
0.00074409
0.000744677
0.000744973
0.000744875
0.000744312
0.000743158
0.000741305
0.000738739
0.000735786
0.000733245
0.000731456
0.000731586
0.000731818
0.000732169
0.000732636
0.000733213
0.000733898
0.000734685
0.000735568
0.000736535
0.000737573
0.000738663
0.000739783
0.000740902
0.000741984
0.000742999
0.000743841
0.000744432
0.000744679
0.000744507
0.000743765
0.000742286
0.000739974
0.000737168
0.000734626
0.000729875
0.000729994
0.000730206
0.000730527
0.000730954
0.000731487
0.000732123
0.000732861
0.000733696
0.000734623
0.000735636
0.000736726
0.000737879
0.000739076
0.00074029
0.000741496
0.000742602
0.000743526
0.000744204
0.000744535
0.000744349
0.000743417
0.000741539
0.000739008
0.000736583
0.000728312
0.000728417
0.000728603
0.000728884
0.000729259
0.000729728
0.00073029
0.000730946
0.000731695
0.000732537
0.000733472
0.000734501
0.000735622
0.00073683
0.00073811
0.000739448
0.000740822
0.000742126
0.000743292
0.000744236
0.000744769
0.000744615
0.000743451
0.000741443
0.000739322
0.000726796
0.000726885
0.000727038
0.00072727
0.000727579
0.000727965
0.00072843
0.000728974
0.000729599
0.00073031
0.000731113
0.000732014
0.000733023
0.000734148
0.000735396
0.000736766
0.000738322
0.000739964
0.000741605
0.00074323
0.000744655
0.000745579
0.000745558
0.000744643
0.000743434
0.000725353
0.000725423
0.000725542
0.000725718
0.000725951
0.000726242
0.000726592
0.000727002
0.000727476
0.000728021
0.000728646
0.000729362
0.000730185
0.000731134
0.000732233
0.000733507
0.000735005
0.000736803
0.000738829
0.000741095
0.000743514
0.000745862
0.000747648
0.000748996
0.000750601
0.000724004
0.000724058
0.000724143
0.000724265
0.000724426
0.000724624
0.000724862
0.000725141
0.000725467
0.000725847
0.000726291
0.000726814
0.000727435
0.00072818
0.00072908
0.000730179
0.000731526
0.000733284
0.000735477
0.000738138
0.000741359
0.000745181
0.000749408
0.000754323
0.000761468
0.000722764
0.000722815
0.000722888
0.000722985
0.00072311
0.000723262
0.000723443
0.000723656
0.000723904
0.000724195
0.000724539
0.00072495
0.000725447
0.000726054
0.000726804
0.000727737
0.000728904
0.000730363
0.000732383
0.000734879
0.000737979
0.000741903
0.000747133
0.00075479
0.000766629
0.000721601
0.000721654
0.00072173
0.00072183
0.000721957
0.000722111
0.000722294
0.000722508
0.000722759
0.000723052
0.000723398
0.00072381
0.000724307
0.00072491
0.000725652
0.000726571
0.000727718
0.000729162
0.00073101
0.000733317
0.000736203
0.000739887
0.000744761
0.000751486
0.000760653
0.000720511
0.000720569
0.000720653
0.000720761
0.000720897
0.000721062
0.000721258
0.000721487
0.000721753
0.000722062
0.000722424
0.000722851
0.00072336
0.000723972
0.000724715
0.000725624
0.000726742
0.000728125
0.000729839
0.000731951
0.000734555
0.000737794
0.00074189
0.000747016
0.000752821
0.000719493
0.000719556
0.000719645
0.00071976
0.000719904
0.000720077
0.000720282
0.000720521
0.000720796
0.000721114
0.000721482
0.000721911
0.000722417
0.000723018
0.000723738
0.000724604
0.000725651
0.00072692
0.000728456
0.000730307
0.000732527
0.000735179
0.000738312
0.000741844
0.000745316
0.000718546
0.000718611
0.000718704
0.000718823
0.00071897
0.000719147
0.000719354
0.000719594
0.000719869
0.000720183
0.000720543
0.000720959
0.000721442
0.000722008
0.000722676
0.000723466
0.000724403
0.000725514
0.000726825
0.00072836
0.000730136
0.000732153
0.000734366
0.000736615
0.000738536
0.000717666
0.000717734
0.000717828
0.000717947
0.000718094
0.00071827
0.000718474
0.000718708
0.000718974
0.000719275
0.000719616
0.000720004
0.000720449
0.000720961
0.000721555
0.000722246
0.000723047
0.000723974
0.000725037
0.000726239
0.000727568
0.000728991
0.000730426
0.000731713
0.000732593
0.000716854
0.000716922
0.000717016
0.000717133
0.000717277
0.000717447
0.000717643
0.000717865
0.000718115
0.000718395
0.000718707
0.000719057
0.000719451
0.000719897
0.000720404
0.00072098
0.000721633
0.000722366
0.000723177
0.000724056
0.000724974
0.000725882
0.000726692
0.000727269
0.00072743
0.000716107
0.000716175
0.000716267
0.00071638
0.000716517
0.000716678
0.000716861
0.000717067
0.000717296
0.000717547
0.000717823
0.000718128
0.000718463
0.000718835
0.000719247
0.000719703
0.000720203
0.000720744
0.000721316
0.000721898
0.000722457
0.000722936
0.000723258
0.000723312
0.000722968
0.000715424
0.00071549
0.000715579
0.000715686
0.000715814
0.000715963
0.000716131
0.000716317
0.000716519
0.000716738
0.000716974
0.000717227
0.000717499
0.000717793
0.000718107
0.000718442
0.000718794
0.000719154
0.000719507
0.000719829
0.000720082
0.000720215
0.000720159
0.00071983
0.000719129
0.000714805
0.000714869
0.000714952
0.000715052
0.00071517
0.000715304
0.000715454
0.000715616
0.00071579
0.000715973
0.000716165
0.000716365
0.000716572
0.000716786
0.000717004
0.000717224
0.000717436
0.000717631
0.00071779
0.000717887
0.000717888
0.000717745
0.000717402
0.000716791
0.00071584
0.000714247
0.000714308
0.000714386
0.000714477
0.000714583
0.000714701
0.000714831
0.000714968
0.000715111
0.000715257
0.000715404
0.000715549
0.000715692
0.000715829
0.000715955
0.000716066
0.000716152
0.0007162
0.00071619
0.0007161
0.000715895
0.000715536
0.000714976
0.000714161
0.000713037
0.000713751
0.000713808
0.00071388
0.000713961
0.000714054
0.000714155
0.000714263
0.000714374
0.000714486
0.000714594
0.000714696
0.000714789
0.000714869
0.000714932
0.000714974
0.000714986
0.000714958
0.000714878
0.000714726
0.00071448
0.00071411
0.000713584
0.000712862
0.000711903
0.000710664
0.000713314
0.000713368
0.000713433
0.000713504
0.000713583
0.000713667
0.000713753
0.000713838
0.000713917
0.000713988
0.000714047
0.000714089
0.00071411
0.000714105
0.000714069
0.000713993
0.000713867
0.000713677
0.000713406
0.000713034
0.000712535
0.000711881
0.000711041
0.000709981
0.000708669
0.000712938
0.000712987
0.000713045
0.000713106
0.00071317
0.000713237
0.000713301
0.00071336
0.000713408
0.000713443
0.00071346
0.000713454
0.000713421
0.000713355
0.00071325
0.000713096
0.000712885
0.000712603
0.000712235
0.000711762
0.000711163
0.000710414
0.00070949
0.000708365
0.000707012
0.000712619
0.000712664
0.000712715
0.000712765
0.000712816
0.000712865
0.000712908
0.000712941
0.00071296
0.000712961
0.000712939
0.00071289
0.000712807
0.000712686
0.00071252
0.0007123
0.000712017
0.000711659
0.000711212
0.00071066
0.000709986
0.000709169
0.000708188
0.000707024
0.000705655
0.000712358
0.000712399
0.000712442
0.000712482
0.00071252
0.000712551
0.000712574
0.000712583
0.000712574
0.000712544
0.000712486
0.000712397
0.00071227
0.000712101
0.000711882
0.000711606
0.000711263
0.000710844
0.000710335
0.000709723
0.000708994
0.000708129
0.000707114
0.000705931
0.000704564
0.000712153
0.00071219
0.000712226
0.000712256
0.00071228
0.000712296
0.000712299
0.000712285
0.000712251
0.000712191
0.000712102
0.000711977
0.000711812
0.000711601
0.000711337
0.000711014
0.000710623
0.000710155
0.000709599
0.000708943
0.000708175
0.000707281
0.000706248
0.000705062
0.000703712
0.000712003
0.000712035
0.000712065
0.000712086
0.000712097
0.000712097
0.000712083
0.000712048
0.000711991
0.000711905
0.000711786
0.00071163
0.000711432
0.000711185
0.000710885
0.000710524
0.000710095
0.000709589
0.000708998
0.000708312
0.000707519
0.000706609
0.000705571
0.000704396
0.000703072
0.000711906
0.000711935
0.000711958
0.000711969
0.00071197
0.000711956
0.000711924
0.000711871
0.000711792
0.000711683
0.000711539
0.000711356
0.00071113
0.000710854
0.000710523
0.000710132
0.000709673
0.00070914
0.000708525
0.000707819
0.000707013
0.000706099
0.000705067
0.000703911
0.000702622
0.000711861
0.000711886
0.000711903
0.000711906
0.000711896
0.000711869
0.000711823
0.000711752
0.000711655
0.000711525
0.00071136
0.000711154
0.000710904
0.000710604
0.000710249
0.000709835
0.000709355
0.000708803
0.000708172
0.000707455
0.000706646
0.000705736
0.00070472
0.00070359
0.000702342
0.000711866
0.000711888
0.000711899
0.000711895
0.000711875
0.000711836
0.000711776
0.000711691
0.000711577
0.000711429
0.000711246
0.000711021
0.000710751
0.000710432
0.00071006
0.000709629
0.000709134
0.00070857
0.000707931
0.000707212
0.000706406
0.000705508
0.000704513
0.000703416
0.000702212
0.00071192
0.000711938
0.000711944
0.000711933
0.000711905
0.000711856
0.000711783
0.000711685
0.000711556
0.000711394
0.000711195
0.000710955
0.00071067
0.000710337
0.000709951
0.000709508
0.000709004
0.000708434
0.000707794
0.000707079
0.000706283
0.000705403
0.000704434
0.000703373
0.000702217
0.00071202
0.000712035
0.000712037
0.00071202
0.000711983
0.000711925
0.000711842
0.000711732
0.000711591
0.000711417
0.000711205
0.000710953
0.000710656
0.000710313
0.000709918
0.000709468
0.00070896
0.00070839
0.000707754
0.000707047
0.000706266
0.000705408
0.00070447
0.000703448
0.000702342
0.000712165
0.000712177
0.000712174
0.000712152
0.000712108
0.000712042
0.00071195
0.00071183
0.00071168
0.000711495
0.000711273
0.000711012
0.000710707
0.000710356
0.000709956
0.000709504
0.000708997
0.00070843
0.000707802
0.000707108
0.000706346
0.000705514
0.000704609
0.000703628
0.000702573
0.000712352
0.000712362
0.000712355
0.000712327
0.000712278
0.000712204
0.000712105
0.000711977
0.000711819
0.000711626
0.000711397
0.000711128
0.000710818
0.000710464
0.000710062
0.000709611
0.000709107
0.000708548
0.000707931
0.000707254
0.000706514
0.00070571
0.000704839
0.000703902
0.000702897
0.000712578
0.000712586
0.000712576
0.000712544
0.00071249
0.00071241
0.000712305
0.00071217
0.000712005
0.000711806
0.000711572
0.000711299
0.000710986
0.00071063
0.00071023
0.000709782
0.000709285
0.000708736
0.000708134
0.000707475
0.00070676
0.000705986
0.000705152
0.000704258
0.000703304
0.000712843
0.000712849
0.000712836
0.0007128
0.000712741
0.000712657
0.000712546
0.000712407
0.000712236
0.000712033
0.000711795
0.00071152
0.000711207
0.000710852
0.000710455
0.000710014
0.000709525
0.000708989
0.000708403
0.000707766
0.000707077
0.000706334
0.000705537
0.000704687
0.000703783
0.000713143
0.000713147
0.000713132
0.000713093
0.00071303
0.000712942
0.000712827
0.000712684
0.00071251
0.000712304
0.000712064
0.000711789
0.000711476
0.000711125
0.000710733
0.0007103
0.000709823
0.000709301
0.000708734
0.000708119
0.000707457
0.000706746
0.000705987
0.000705179
0.000704325
0.000713477
0.000713479
0.000713461
0.00071342
0.000713354
0.000713263
0.000713145
0.000712999
0.000712822
0.000712615
0.000712375
0.0007121
0.000711791
0.000711444
0.00071106
0.000710636
0.000710172
0.000709666
0.000709118
0.000708527
0.000707893
0.000707214
0.000706493
0.000705728
0.000704922
0.000713841
0.000713842
0.000713822
0.000713779
0.000713711
0.000713617
0.000713497
0.000713349
0.000713171
0.000712963
0.000712724
0.000712452
0.000712147
0.000711807
0.000711431
0.000711018
0.000710568
0.000710079
0.000709552
0.000708985
0.000708378
0.000707733
0.000707048
0.000706325
0.000705566
0.000714234
0.000714233
0.000714212
0.000714167
0.000714097
0.000714002
0.00071388
0.000713731
0.000713553
0.000713346
0.000713109
0.00071284
0.00071254
0.000712207
0.000711841
0.000711441
0.000711005
0.000710534
0.000710028
0.000709486
0.000708908
0.000708294
0.000707646
0.000706964
0.00070625
0.000714653
0.000714651
0.000714628
0.000714582
0.000714511
0.000714414
0.000714292
0.000714142
0.000713965
0.00071376
0.000713526
0.000713262
0.000712968
0.000712643
0.000712287
0.0007119
0.00071148
0.000711027
0.000710542
0.000710025
0.000709475
0.000708893
0.000708281
0.000707638
0.000706968
0.000715095
0.000715092
0.000715069
0.000715021
0.000714949
0.000714852
0.00071473
0.000714581
0.000714405
0.000714202
0.000713972
0.000713713
0.000713426
0.000713111
0.000712766
0.000712391
0.000711987
0.000711554
0.00071109
0.000710597
0.000710075
0.000709524
0.000708947
0.000708343
0.000707714
0.000715559
0.000715556
0.000715531
0.000715483
0.000715411
0.000715314
0.000715191
0.000715044
0.00071487
0.00071467
0.000714444
0.000714191
0.000713912
0.000713606
0.000713272
0.000712912
0.000712524
0.000712109
0.000711667
0.000711198
0.000710703
0.000710183
0.000709639
0.000709072
0.000708483
0.000716043
0.000716038
0.000716014
0.000715965
0.000715893
0.000715796
0.000715674
0.000715528
0.000715357
0.000715161
0.000714939
0.000714693
0.000714422
0.000714126
0.000713804
0.000713458
0.000713086
0.00071269
0.000712269
0.000711824
0.000711355
0.000710865
0.000710353
0.000709821
0.000709271
0.000716544
0.000716538
0.000716513
0.000716465
0.000716392
0.000716296
0.000716176
0.000716032
0.000715863
0.000715671
0.000715455
0.000715216
0.000714953
0.000714667
0.000714357
0.000714025
0.000713669
0.000713291
0.000712891
0.00071247
0.000712027
0.000711565
0.000711084
0.000710586
0.000710072
0.000717059
0.000717054
0.000717028
0.00071698
0.000716908
0.000716813
0.000716694
0.000716552
0.000716387
0.000716199
0.000715989
0.000715757
0.000715502
0.000715226
0.000714929
0.000714611
0.000714271
0.000713911
0.000713532
0.000713133
0.000712715
0.00071228
0.000711829
0.000711363
0.000710884
0.000717588
0.000717582
0.000717556
0.000717508
0.000717437
0.000717343
0.000717226
0.000717087
0.000716926
0.000716742
0.000716538
0.000716313
0.000716067
0.000715802
0.000715517
0.000715212
0.000714888
0.000714546
0.000714186
0.000713809
0.000713416
0.000713007
0.000712585
0.000712149
0.000711703
0.000718127
0.000718121
0.000718096
0.000718048
0.000717978
0.000717885
0.000717771
0.000717634
0.000717477
0.000717298
0.0007171
0.000716882
0.000716646
0.00071639
0.000716117
0.000715826
0.000715518
0.000715193
0.000714852
0.000714496
0.000714126
0.000713743
0.000713347
0.000712941
0.000712526
0.000718676
0.00071867
0.000718645
0.000718598
0.000718528
0.000718438
0.000718325
0.000718192
0.000718038
0.000717865
0.000717673
0.000717462
0.000717234
0.000716989
0.000716728
0.00071645
0.000716157
0.000715849
0.000715527
0.000715191
0.000714843
0.000714484
0.000714114
0.000713735
0.00071335
0.000719232
0.000719225
0.000719201
0.000719154
0.000719087
0.000718998
0.000718888
0.000718758
0.000718608
0.00071844
0.000718254
0.000718051
0.000717832
0.000717597
0.000717347
0.000717082
0.000716804
0.000716512
0.000716207
0.000715891
0.000715564
0.000715227
0.000714882
0.00071453
0.000714172
0.000719793
0.000719787
0.000719763
0.000719717
0.000719651
0.000719564
0.000719457
0.00071933
0.000719185
0.000719022
0.000718842
0.000718646
0.000718435
0.00071821
0.000717971
0.000717719
0.000717455
0.000717179
0.000716891
0.000716594
0.000716287
0.000715972
0.00071565
0.000715322
0.00071499
0.000720358
0.000720352
0.000720328
0.000720284
0.000720219
0.000720134
0.00072003
0.000719907
0.000719766
0.000719608
0.000719434
0.000719246
0.000719043
0.000718828
0.0007186
0.00071836
0.000718109
0.000717848
0.000717577
0.000717297
0.000717009
0.000716715
0.000716415
0.00071611
0.000715803
0.000720925
0.000720919
0.000720896
0.000720853
0.00072079
0.000720708
0.000720606
0.000720486
0.00072035
0.000720197
0.000720029
0.000719848
0.000719654
0.000719448
0.00071923
0.000719002
0.000718764
0.000718517
0.000718262
0.000717999
0.000717729
0.000717454
0.000717175
0.000716892
0.000716608
0.000721492
0.000721487
0.000721465
0.000721424
0.000721362
0.000721282
0.000721183
0.000721067
0.000720935
0.000720787
0.000720625
0.000720451
0.000720265
0.000720068
0.00071986
0.000719644
0.000719418
0.000719185
0.000718944
0.000718697
0.000718445
0.000718189
0.000717928
0.000717666
0.000717403
0.000722059
0.000722054
0.000722034
0.000721993
0.000721934
0.000721856
0.00072176
0.000721648
0.000721519
0.000721377
0.000721221
0.000721053
0.000720875
0.000720687
0.000720489
0.000720283
0.00072007
0.000719849
0.000719623
0.000719391
0.000719155
0.000718916
0.000718674
0.000718431
0.000718188
0.000722623
0.000722619
0.0007226
0.000722561
0.000722504
0.000722428
0.000722336
0.000722227
0.000722103
0.000721965
0.000721815
0.000721654
0.000721483
0.000721303
0.000721115
0.000720919
0.000720717
0.000720509
0.000720296
0.000720078
0.000719858
0.000719634
0.00071941
0.000719185
0.000718961
0.000723183
0.000723181
0.000723163
0.000723126
0.000723071
0.000722998
0.000722908
0.000722803
0.000722683
0.00072255
0.000722405
0.000722251
0.000722087
0.000721915
0.000721735
0.00072155
0.000721358
0.000721162
0.000720961
0.000720758
0.000720551
0.000720343
0.000720135
0.000719927
0.00071972
0.000723739
0.000723738
0.000723721
0.000723686
0.000723633
0.000723563
0.000723476
0.000723374
0.000723259
0.00072313
0.000722991
0.000722843
0.000722686
0.000722521
0.00072235
0.000722174
0.000721993
0.000721807
0.000721619
0.000721428
0.000721235
0.000721041
0.000720848
0.000720655
0.000720465
0.000724289
0.000724289
0.000724274
0.000724241
0.00072419
0.000724123
0.000724039
0.000723941
0.000723829
0.000723705
0.000723572
0.000723429
0.000723278
0.000723121
0.000722958
0.000722791
0.000722619
0.000722444
0.000722266
0.000722087
0.000721907
0.000721727
0.000721548
0.00072137
0.000721195
0.000724831
0.000724833
0.00072482
0.000724789
0.000724741
0.000724676
0.000724596
0.000724501
0.000724393
0.000724274
0.000724145
0.000724008
0.000723863
0.000723713
0.000723558
0.000723399
0.000723236
0.000723071
0.000722904
0.000722735
0.000722567
0.000722399
0.000722233
0.000722069
0.000721908
0.000725366
0.000725369
0.000725359
0.00072533
0.000725285
0.000725223
0.000725145
0.000725054
0.00072495
0.000724835
0.000724711
0.000724579
0.00072444
0.000724297
0.000724148
0.000723997
0.000723842
0.000723686
0.000723529
0.000723371
0.000723214
0.000723058
0.000722904
0.000722752
0.000722605
0.000725891
0.000725896
0.000725889
0.000725863
0.00072582
0.000725761
0.000725687
0.000725599
0.000725499
0.000725388
0.000725268
0.000725141
0.000725008
0.00072487
0.000724729
0.000724584
0.000724438
0.00072429
0.000724142
0.000723993
0.000723846
0.000723701
0.000723558
0.000723419
0.000723283
0.000726407
0.000726415
0.00072641
0.000726387
0.000726347
0.000726291
0.00072622
0.000726135
0.000726039
0.000725932
0.000725816
0.000725694
0.000725566
0.000725433
0.000725298
0.00072516
0.000725021
0.000724881
0.000724741
0.000724602
0.000724464
0.000724329
0.000724196
0.000724068
0.000723943
0.000726912
0.000726923
0.000726921
0.000726901
0.000726864
0.000726812
0.000726744
0.000726662
0.000726569
0.000726466
0.000726354
0.000726236
0.000726113
0.000725985
0.000725855
0.000725723
0.000725591
0.000725458
0.000725325
0.000725195
0.000725066
0.000724939
0.000724817
0.000724698
0.000724584
0.000727406
0.00072742
0.000727422
0.000727406
0.000727372
0.000727322
0.000727258
0.000727179
0.000727089
0.000726989
0.000726881
0.000726767
0.000726648
0.000726525
0.0007264
0.000726274
0.000726147
0.000726021
0.000725895
0.000725772
0.000725651
0.000725533
0.000725419
0.00072531
0.000725206
0.000727888
0.000727906
0.000727912
0.0007279
0.00072787
0.000727823
0.000727762
0.000727687
0.0007276
0.000727503
0.000727398
0.000727287
0.000727171
0.000727053
0.000726932
0.000726811
0.000726689
0.000726568
0.000726449
0.000726332
0.000726218
0.000726108
0.000726003
0.000725902
0.000725807
0.000728358
0.000728381
0.000728392
0.000728383
0.000728357
0.000728314
0.000728256
0.000728183
0.000728099
0.000728005
0.000727903
0.000727795
0.000727682
0.000727567
0.00072745
0.000727333
0.000727216
0.0007271
0.000726986
0.000726875
0.000726768
0.000726665
0.000726567
0.000726474
0.000726386
0.000728816
0.000728844
0.00072886
0.000728857
0.000728834
0.000728795
0.000728739
0.00072867
0.000728588
0.000728496
0.000728396
0.00072829
0.000728181
0.000728068
0.000727954
0.00072784
0.000727727
0.000727615
0.000727506
0.000727401
0.000727299
0.000727202
0.00072711
0.000727024
0.000726945
0.000729262
0.000729296
0.000729318
0.00072932
0.000729302
0.000729266
0.000729213
0.000729146
0.000729066
0.000728976
0.000728878
0.000728774
0.000728665
0.000728555
0.000728443
0.000728332
0.000728222
0.000728114
0.000728009
0.000727907
0.000727811
0.000727719
0.000727633
0.000727554
0.000727481
0.000729695
0.000729736
0.000729766
0.000729773
0.000729759
0.000729727
0.000729677
0.000729612
0.000729534
0.000729445
0.000729347
0.000729244
0.000729137
0.000729027
0.000728917
0.000728807
0.000728699
0.000728594
0.000728492
0.000728395
0.000728302
0.000728216
0.000728135
0.000728061
0.000727995
0.000730117
0.000730165
0.000730203
0.000730217
0.000730208
0.000730179
0.000730132
0.000730068
0.000729991
0.000729902
0.000729805
0.000729701
0.000729594
0.000729484
0.000729375
0.000729266
0.000729159
0.000729056
0.000728956
0.000728862
0.000728773
0.00072869
0.000728614
0.000728546
0.000728485
0.000730527
0.000730585
0.000730632
0.000730653
0.000730649
0.000730624
0.000730579
0.000730516
0.000730438
0.000730348
0.00073025
0.000730145
0.000730037
0.000729926
0.000729816
0.000729707
0.000729601
0.000729498
0.000729401
0.000729308
0.000729222
0.000729143
0.000729071
0.000729007
0.000728951
0.000730926
0.000730996
0.000731054
0.000731082
0.000731084
0.000731062
0.000731018
0.000730955
0.000730876
0.000730784
0.000730683
0.000730576
0.000730465
0.000730353
0.000730241
0.00073013
0.000730024
0.000729921
0.000729824
0.000729733
0.000729649
0.000729572
0.000729503
0.000729443
0.000729392
0.000731316
0.0007314
0.000731471
0.000731508
0.000731515
0.000731495
0.000731452
0.000731387
0.000731305
0.00073121
0.000731105
0.000730993
0.000730878
0.000730762
0.000730647
0.000730535
0.000730426
0.000730323
0.000730225
0.000730135
0.000730052
0.000729978
0.000729912
0.000729855
0.000729807
0.0007317
0.000731799
0.000731885
0.000731931
0.000731944
0.000731926
0.000731881
0.000731813
0.000731726
0.000731625
0.000731514
0.000731397
0.000731276
0.000731155
0.000731036
0.000730919
0.000730808
0.000730703
0.000730604
0.000730514
0.000730431
0.000730358
0.000730294
0.00073024
0.000730196
0.000732079
0.000732198
0.000732301
0.000732358
0.000732375
0.000732357
0.000732309
0.000732235
0.000732141
0.000732031
0.000731912
0.000731786
0.000731658
0.00073153
0.000731404
0.000731283
0.000731168
0.00073106
0.000730959
0.000730868
0.000730785
0.000730713
0.00073065
0.000730599
0.000730558
0.000732457
0.000732601
0.000732724
0.000732792
0.000732812
0.000732792
0.000732737
0.000732654
0.000732548
0.000732428
0.000732297
0.00073216
0.000732022
0.000731885
0.000731752
0.000731625
0.000731505
0.000731393
0.000731289
0.000731196
0.000731113
0.00073104
0.000730979
0.000730929
0.000730891
0.000732841
0.000733014
0.000733161
0.00073324
0.000733261
0.000733234
0.000733168
0.000733071
0.000732951
0.000732814
0.000732668
0.000732518
0.000732368
0.00073222
0.000732078
0.000731943
0.000731817
0.0007317
0.000731593
0.000731498
0.000731413
0.00073134
0.00073128
0.000731231
0.000731196
0.00073324
0.000733449
0.000733624
0.000733711
0.000733728
0.00073369
0.000733606
0.000733489
0.000733347
0.000733191
0.000733026
0.000732859
0.000732693
0.000732533
0.00073238
0.000732236
0.000732103
0.00073198
0.00073187
0.000731771
0.000731685
0.000731611
0.000731551
0.000731504
0.00073147
0.000733665
0.00073392
0.000734125
0.000734218
0.000734224
0.000734163
0.000734053
0.000733907
0.000733738
0.000733555
0.000733367
0.000733179
0.000732996
0.000732821
0.000732656
0.000732502
0.000732361
0.000732232
0.000732117
0.000732015
0.000731927
0.000731852
0.000731792
0.000731745
0.000731713
0.000734139
0.000734448
0.000734686
0.000734776
0.000734757
0.000734661
0.000734511
0.000734326
0.00073412
0.000733904
0.000733688
0.000733476
0.000733273
0.000733082
0.000732903
0.000732739
0.000732589
0.000732454
0.000732334
0.000732228
0.000732138
0.000732062
0.000732002
0.000731956
0.000731925
0.000734696
0.000735069
0.000735337
0.000735405
0.00073534
0.000735188
0.000734982
0.000734743
0.00073449
0.000734235
0.000733985
0.000733746
0.000733521
0.000733312
0.000733119
0.000732944
0.000732785
0.000732644
0.000732519
0.00073241
0.000732317
0.000732241
0.000732179
0.000732134
0.000732104
0.000735398
0.000735836
0.000736116
0.000736131
0.000735984
0.000735747
0.000735461
0.000735153
0.000734842
0.00073454
0.000734252
0.000733983
0.000733735
0.000733507
0.000733301
0.000733114
0.000732948
0.0007328
0.000732671
0.000732559
0.000732464
0.000732386
0.000732325
0.00073228
0.000732251
0.000736361
0.000736837
0.000737083
0.000736982
0.000736698
0.000736334
0.00073594
0.000735545
0.000735165
0.000734809
0.00073448
0.00073418
0.000733909
0.000733664
0.000733444
0.000733248
0.000733074
0.000732921
0.000732788
0.000732673
0.000732577
0.000732498
0.000732437
0.000732392
0.000732364
0.000737787
0.000738203
0.000738307
0.000737983
0.000737482
0.000736937
0.000736401
0.0007359
0.000735442
0.000735029
0.00073466
0.00073433
0.000734037
0.000733777
0.000733546
0.000733342
0.000733163
0.000733006
0.00073287
0.000732754
0.000732656
0.000732577
0.000732516
0.000732471
0.000732444
0.000740029
0.000740131
0.000739863
0.000739142
0.00073831
0.000737518
0.000736812
0.000736192
0.000735654
0.000735186
0.000734779
0.000734425
0.000734115
0.000733843
0.000733604
0.000733395
0.000733212
0.000733053
0.000732916
0.000732799
0.000732702
0.000732623
0.000732561
0.000732518
0.000732491
0.00074403
0.00074304
0.000741804
0.00074039
0.000739094
0.000738006
0.000737111
0.000736375
0.000735766
0.000735255
0.000734822
0.000734452
0.000734132
0.000733855
0.000733614
0.000733403
0.00073322
0.000733061
0.000732924
0.000732808
0.000732712
0.000732634
0.000732573
0.00073253
0.000732504
0.000752977
0.00074787
0.000744072
0.000741517
0.000739652
0.000738255
0.000737199
0.000736384
0.000735736
0.000735208
0.00073477
0.000734399
0.000734082
0.000733808
0.00073357
0.000733363