/*--------------------------------*- C++ -*----------------------------------*\
  =========                 |
  \\      /  F ield         | OpenFOAM: The Open Source CFD Toolbox
   \\    /   O peration     | Website:  https://openfoam.org
    \\  /    A nd           | Version:  13
     \\/     M anipulation  |
\*---------------------------------------------------------------------------*/
FoamFile
{
    format      ascii;
    class       surfaceScalarField;
    location    "19";
    object      phi;
}
// * * * * * * * * * * * * * * * * * * * * * * * * * * * * * * * * * * * * * //

dimensions      [0 3 -1 0 0 0 0];

internalField   nonuniform List<scalar> 
12590
(
-9.60133e-08
9.66166e-08
-2.17922e-07
1.21913e-07
-3.43424e-07
1.261e-07
-4.4053e-07
9.88986e-08
-4.64289e-07
2.56474e-08
-4.31582e-07
-3.0425e-08
-3.76561e-07
-5.25706e-08
-3.20885e-07
-5.42235e-08
-2.7881e-07
-3.87019e-08
-2.58264e-07
-1.89028e-08
-2.43054e-07
-1.06797e-08
-2.42487e-07
2.37396e-09
-2.38277e-07
-2.37144e-10
-2.35506e-07
1.05485e-09
-2.32352e-07
6.90887e-10
-2.56398e-07
2.71985e-08
-2.95979e-07
4.22017e-08
-3.23154e-07
2.89762e-08
-3.08336e-07
-1.29492e-08
-2.34607e-07
-7.22384e-08
-1.1314e-07
-1.19115e-07
1.51768e-08
-1.2657e-07
9.30713e-08
-7.24172e-08
7.66605e-08
2.21309e-08
7.84769e-08
-7.97615e-08
1.76655e-07
-1.5158e-07
1.93892e-07
-1.73128e-07
1.49497e-07
-1.35332e-07
6.40336e-08
-5.46511e-08
-5.1409e-08
7.33242e-08
-1.55903e-07
2.14692e-07
-1.92416e-07
3.29363e-07
-1.68022e-07
3.95188e-07
-1.03583e-07
3.99462e-07
-2.26252e-08
3.29273e-07
6.03733e-08
2.00136e-07
1.3251e-07
2.34983e-08
1.78387e-07
-1.46037e-07
1.73582e-07
-2.70388e-07
1.28061e-07
-3.47486e-07
1.06518e-07
-4.05333e-07
1.02062e-07
-4.31732e-07
5.67806e-08
-4.03347e-07
-3.97108e-08
-3.24671e-07
-1.49619e-07
-2.16392e-07
-2.25995e-07
-1.0239e-07
-2.38359e-07
-2.57561e-09
-1.69562e-07
3.18474e-08
-5.51271e-09
1.12464e-07
1.20268e-08
1.65873e-07
3.66748e-08
1.70601e-07
1.13921e-07
7.44488e-08
2.73603e-07
-9.39577e-08
4.7769e-07
-2.54327e-07
6.5021e-07
-3.27521e-07
7.65026e-07
-3.06457e-07
8.17241e-07
-2.19797e-07
8.12612e-07
-9.85972e-08
7.57358e-07
3.28241e-08
6.59608e-07
1.58299e-07
5.24411e-07
2.68009e-07
3.50523e-07
3.52715e-07
1.31037e-07
3.94106e-07
-1.08249e-07
3.68799e-07
-2.89304e-07
2.89429e-07
-3.88859e-07
2.03519e-07
-4.20206e-07
8.97838e-08
-3.81791e-07
-7.61481e-08
-2.92845e-07
-2.37142e-07
-1.95684e-07
-3.21758e-07
-1.10147e-07
-3.22997e-07
-3.8154e-08
-2.38146e-07
1.33716e-08
-5.10561e-08
1.28029e-07
4.67555e-08
1.2136e-07
1.69609e-07
4.94971e-08
4.06191e-07
-1.60802e-07
6.81773e-07
-3.68663e-07
8.93894e-07
-4.65645e-07
1.0149e-06
-4.47835e-07
1.05823e-06
-3.49288e-07
1.04265e-06
-2.03895e-07
9.83507e-07
-3.90809e-08
8.89595e-07
1.26747e-07
7.67514e-07
2.80444e-07
6.24307e-07
4.11253e-07
4.65284e-07
5.11855e-07
2.86111e-07
5.73852e-07
7.67892e-08
5.78874e-07
-1.36438e-07
5.04208e-07
-2.86395e-07
3.55336e-07
-3.34687e-07
1.404e-07
-2.82006e-07
-1.25945e-07
-1.83117e-07
-3.34297e-07
-1.03323e-07
-4.00065e-07
-4.17683e-08
-3.82792e-07
-3.94168e-09
-2.72766e-07
7.71688e-09
-5.74295e-08
1.38e-07
9.63886e-08
2.72823e-08
3.74379e-07
-2.27372e-07
7.08419e-07
-4.94077e-07
9.53005e-07
-6.12597e-07
1.08829e-06
-6.00306e-07
1.14081e-06
-4.99832e-07
1.13345e-06
-3.41379e-07
1.08247e-06
-1.52592e-07
9.9421e-07
4.95547e-08
8.74338e-07
2.46668e-07
7.33183e-07
4.2175e-07
5.82091e-07
5.62333e-07
4.31037e-07
6.6307e-07
2.83291e-07
7.22031e-07
1.32634e-07
7.3012e-07
-2.56305e-08
6.63571e-07
-1.65879e-07
4.97308e-07
-2.27118e-07
2.04577e-07
-1.6162e-07
-1.87322e-07
-7.99196e-08
-4.13875e-07
-2.78142e-08
-4.50409e-07
1.11479e-08
-4.20009e-07
2.76553e-08
-2.87009e-07
4.70857e-11
-2.33389e-08
1.39826e-07
2.23686e-07
-1.95134e-07
5.82545e-07
-5.85614e-07
8.45401e-07
-7.56385e-07
9.91809e-07
-7.58457e-07
1.04896e-06
-6.56895e-07
1.04618e-06
-4.96464e-07
1.00766e-06
-3.02336e-07
9.38667e-07
-8.30966e-08
8.40379e-07
1.48216e-07
7.14592e-07
3.72572e-07
5.71641e-07
5.64841e-07
4.25366e-07
7.08652e-07
2.88828e-07
7.99746e-07
1.69755e-07
8.41544e-07
6.82834e-08
8.31966e-07
-2.09625e-08
7.53574e-07
-1.0008e-07
5.77768e-07
-1.37682e-07
2.45653e-07
-5.29418e-08
-2.6681e-07
-2.1249e-08
-4.43323e-07
-3.769e-09
-4.66196e-07
9.11095e-09
-4.31971e-07
1.20028e-08
-2.8495e-07
-1.08726e-08
3.86425e-09
1.30877e-07
3.36702e-07
-5.31223e-07
6.0681e-07
-8.55205e-07
7.52731e-07
-9.01754e-07
8.15048e-07
-8.20201e-07
8.25627e-07
-6.66809e-07
8.02505e-07
-4.7265e-07
7.47724e-07
-2.46839e-07
6.671e-07
-1.96159e-09
5.69701e-07
2.46005e-07
4.47046e-07
4.95121e-07
3.1122e-07
7.00762e-07
1.80197e-07
8.39446e-07
6.84034e-08
9.11813e-07
-1.70813e-08
9.27073e-07
-7.50644e-08
8.90226e-07
-1.07988e-07
7.86785e-07
-1.11988e-07
5.82961e-07
-6.88009e-08
2.06239e-07
-7.88629e-09
-3.21976e-07
-3.76444e-08
-4.11464e-07
-5.7945e-08
-4.44174e-07
-5.97573e-08
-4.27653e-07
-5.22283e-08
-2.91217e-07
-2.49114e-08
-1.73238e-08
1.07082e-07
3.03311e-07
-8.33932e-07
4.65816e-07
-1.01715e-06
5.38733e-07
-9.74007e-07
5.55297e-07
-8.35968e-07
5.35529e-07
-6.46069e-07
4.89425e-07
-4.25784e-07
4.10777e-07
-1.66836e-07
3.11341e-07
9.80006e-08
2.11549e-07
3.46003e-07
9.80578e-08
6.08089e-07
-1.8334e-08
8.17083e-07
-1.23357e-07
9.44042e-07
-2.07097e-07
9.95596e-07
-2.5952e-07
9.79386e-07
-2.78115e-07
9.08943e-07
-2.60824e-07
7.69716e-07
-1.94512e-07
5.17552e-07
-7.687e-08
9.15299e-08
-1.12546e-07
-2.82796e-07
-1.76787e-07
-3.45317e-07
-2.03401e-07
-4.16429e-07
-1.86671e-07
-4.43955e-07
-1.28838e-07
-3.457e-07
-4.38559e-08
-1.00592e-07
6.44662e-08
1.97833e-07
-1.03109e-06
2.8634e-07
-1.10483e-06
3.02293e-07
-9.88969e-07
2.74806e-07
-8.07341e-07
2.17552e-07
-5.87541e-07
1.29601e-07
-3.36115e-07
2.12616e-08
-5.6879e-08
-7.80354e-08
1.97977e-07
-1.80116e-07
4.47964e-07
-2.88068e-07
7.15587e-07
-3.89367e-07
9.18233e-07
-4.64358e-07
1.01872e-06
-5.08904e-07
1.04008e-06
-5.23316e-07
9.93708e-07
-5.02223e-07
8.87992e-07
-4.37879e-07
7.05659e-07
-3.20861e-07
4.01452e-07
-2.39231e-07
1.17183e-08
-3.19853e-07
-2.00142e-07
-3.60639e-07
-3.03317e-07
-3.5135e-07
-4.24738e-07
-3.04235e-07
-4.89698e-07
-2.06603e-07
-4.4341e-07
-6.28651e-08
-2.42071e-07
2.77682e-09
9.97537e-08
-1.12981e-06
1.07318e-07
-1.11122e-06
6.47331e-08
-9.45061e-07
3.34278e-11
-7.40901e-07
-8.31944e-08
-5.02829e-07
-1.82632e-07
-2.35004e-07
-2.86967e-07
4.85914e-08
-4.12121e-07
3.23395e-07
-5.51177e-07
5.86973e-07
-6.66488e-07
8.30762e-07
-7.45972e-07
9.97679e-07
-7.83973e-07
1.05655e-06
-7.96234e-07
1.05233e-06
-7.78244e-07
9.75727e-07
-7.18525e-07
8.28475e-07
-6.07629e-07
5.95228e-07
-4.79438e-07
2.74166e-07
-4.52802e-07
-1.32273e-08
-4.87005e-07
-1.64582e-07
-4.75158e-07
-3.14068e-07
-4.4649e-07
-4.5243e-07
-3.96178e-07
-5.39583e-07
-2.90965e-07
-5.47515e-07
-1.20112e-07
-4.11404e-07
-1.16861e-07
1.25229e-08
-1.14102e-06
-5.41867e-08
-1.04282e-06
-1.44153e-07
-8.53427e-07
-2.53865e-07
-6.29538e-07
-3.81105e-07
-3.74086e-07
-5.16778e-07
-9.8132e-08
-6.51497e-07
1.83946e-07
-7.85184e-07
4.57331e-07
-9.12585e-07
7.14525e-07
-1.00658e-06
9.24743e-07
-1.05187e-06
1.04302e-06
-1.06322e-06
1.06791e-06
-1.05364e-06
1.04282e-06
-9.9834e-07
9.20556e-07
-8.88246e-07
7.18688e-07
-7.34312e-07
4.41878e-07
-6.14807e-07
1.5574e-07
-5.77575e-07
-4.88585e-08
-5.37211e-07
-2.03578e-07
-4.87534e-07
-3.62413e-07
-4.48972e-07
-4.89962e-07
-4.03779e-07
-5.83537e-07
-3.19115e-07
-6.30986e-07
-1.66174e-07
-5.63857e-07
-2.81847e-07
-6.43525e-08
-1.0749e-06
-1.85007e-07
-9.20158e-07
-3.24364e-07
-7.12083e-07
-4.79513e-07
-4.72597e-07
-6.42628e-07
-2.09479e-07
-8.03066e-07
6.32884e-08
-9.53478e-07
3.34903e-07
-1.09189e-06
5.9596e-07
-1.20497e-06
8.27742e-07
-1.27546e-06
9.95311e-07
-1.29595e-06
1.06363e-06
-1.29314e-06
1.06518e-06
-1.25049e-06
1.00035e-06
-1.13904e-06
8.0936e-07
-9.61391e-07
5.41495e-07
-7.74447e-07
2.55752e-07
-6.57503e-07
4.01417e-08
-5.84409e-07
-1.20277e-07
-5.06262e-07
-2.80027e-07
-4.44337e-07
-4.22916e-07
-3.97643e-07
-5.34853e-07
-3.51111e-07
-6.28421e-07
-2.85376e-07
-6.96165e-07
-1.6575e-07
-6.811e-07
-4.4648e-07
-1.26382e-07
-9.46474e-07
-2.94994e-07
-7.49033e-07
-4.74065e-07
-5.3083e-07
-6.59407e-07
-2.8529e-07
-8.42898e-07
-2.45386e-08
-1.01712e-06
2.3835e-07
-1.17675e-06
4.949e-07
-1.31457e-06
7.33992e-07
-1.41649e-06
9.2985e-07
-1.46661e-06
1.04551e-06
-1.4759e-06
1.07307e-06
-1.44858e-06
1.03802e-06
-1.34163e-06
8.93708e-07
-1.1428e-06
6.10938e-07
-9.00439e-07
2.99864e-07
-7.20319e-07
7.68134e-08
-6.15669e-07
-6.29018e-08
-5.22447e-07
-2.11581e-07
-4.35583e-07
-3.65198e-07
-3.66426e-07
-4.89977e-07
-3.08075e-07
-5.91366e-07
-2.58432e-07
-6.76469e-07
-2.14128e-07
-7.37877e-07
-1.34104e-07
-7.59173e-07
-5.79047e-07
-1.77844e-07
-7.65855e-07
-3.83403e-07
-5.4077e-07
-5.90233e-07
-3.2139e-07
-7.9483e-07
-7.86981e-08
-9.90618e-07
1.72523e-07
-1.17276e-06
4.21146e-07
-1.33642e-06
6.58936e-07
-1.46982e-06
8.67623e-07
-1.55857e-06
1.01872e-06
-1.59139e-06
1.07847e-06
-1.58235e-06
1.06419e-06
-1.49126e-06
9.47216e-07
-1.27862e-06
6.81459e-07
-9.92194e-07
3.25204e-07
-7.62437e-07
7.1159e-08
-6.45097e-07
-3.89925e-08
-5.55926e-07
-1.50364e-07
-4.62678e-07
-3.02969e-07
-3.83399e-07
-4.42553e-07
-3.13473e-07
-5.57851e-07
-2.47932e-07
-6.54733e-07
-1.88584e-07
-7.33707e-07
-1.40033e-07
-7.84748e-07
-8.46261e-08
-8.1172e-07
-6.61763e-07
-2.22786e-07
-5.39887e-07
-4.48808e-07
-3.10807e-07
-6.73222e-07
-9.39673e-08
-8.89935e-07
1.4007e-07
-1.09452e-06
3.78264e-07
-1.28307e-06
6.10293e-07
-1.44644e-06
8.2267e-07
-1.57141e-06
9.9276e-07
-1.63975e-06
1.08729e-06
-1.65163e-06
1.09045e-06
-1.58029e-06
9.93178e-07
-1.37556e-06
7.42768e-07
-1.0586e-06
3.65201e-07
-7.86628e-07
5.40948e-08
-6.64368e-07
-4.95384e-08
-5.91539e-07
-1.10412e-07
-4.99892e-07
-2.39993e-07
-4.15978e-07
-3.85201e-07
-3.4284e-07
-5.13519e-07
-2.71574e-07
-6.27019e-07
-2.0341e-07
-7.21175e-07
-1.41704e-07
-7.93166e-07
-9.56823e-08
-8.29366e-07
-5.4515e-08
-8.48626e-07
-7.15783e-07
-2.508e-07
-2.83541e-07
-4.92092e-07
-6.45621e-08
-7.30293e-07
1.47453e-07
-9.56856e-07
3.68684e-07
-1.1693e-06
5.91691e-07
-1.36094e-06
8.02747e-07
-1.51974e-06
9.81586e-07
-1.62554e-06
1.09902e-06
-1.66544e-06
1.12716e-06
-1.61958e-06
1.0451e-06
-1.43468e-06
8.08445e-07
-1.11077e-06
4.19736e-07
-8.05399e-07
6.07408e-08
-6.82112e-07
-6.761e-08
-6.30713e-07
-9.93227e-08
-5.46528e-07
-1.92431e-07
-4.5936e-07
-3.25129e-07
-3.84352e-07
-4.577e-07
-3.12334e-07
-5.8323e-07
-2.39596e-07
-6.97633e-07
-1.69465e-07
-7.88659e-07
-1.09434e-07
-8.52389e-07
-6.6317e-08
-8.69306e-07
-3.50608e-08
-8.79683e-07
-7.52217e-07
-2.6427e-07
-1.07197e-08
-5.15272e-07
1.91316e-07
-7.59972e-07
3.95285e-07
-9.95902e-07
6.06037e-07
-1.21476e-06
8.12143e-07
-1.40494e-06
9.93095e-07
-1.54639e-06
1.12408e-06
-1.62084e-06
1.1732e-06
-1.61038e-06
1.11744e-06
-1.46088e-06
8.95499e-07
-1.15302e-06
5.01499e-07
-8.3458e-07
1.01942e-07
-7.07034e-07
-6.51326e-08
-6.7024e-07
-1.01834e-07
-5.97793e-07
-1.69549e-07
-5.12313e-07
-2.74397e-07
-4.36831e-07
-3.97677e-07
-3.65993e-07
-5.25115e-07
-2.9471e-07
-6.51744e-07
-2.2274e-07
-7.67128e-07
-1.54073e-07
-8.54821e-07
-9.22606e-08
-9.13966e-07
-4.76116e-08
-9.12912e-07
-1.72946e-08
-9.14574e-07
-7.66435e-07
-2.59572e-07
2.56572e-07
-5.06553e-07
4.42645e-07
-7.60212e-07
6.51e-07
-1.00725e-06
8.55137e-07
-1.23102e-06
1.03697e-06
-1.41117e-06
1.17485e-06
-1.52925e-06
1.24208e-06
-1.5655e-06
1.21016e-06
-1.46097e-06
1.01257e-06
-1.19072e-06
6.25449e-07
-8.84499e-07
1.95036e-07
-7.51798e-07
-2.90348e-08
-7.22074e-07
-9.27326e-08
-6.54499e-07
-1.68133e-07
-5.6997e-07
-2.49962e-07
-4.92563e-07
-3.49174e-07
-4.20597e-07
-4.65273e-07
-3.4948e-07
-5.9284e-07
-2.77742e-07
-7.20742e-07
-2.05183e-07
-8.35355e-07
-1.3765e-07
-9.23514e-07
-7.67702e-08
-9.68695e-07
-3.12283e-08
-9.64592e-07
3.03883e-09
-9.38006e-07
-7.6527e-07
-2.2273e-07
4.8543e-07
-4.81248e-07
7.04504e-07
-7.49771e-07
9.21879e-07
-1.00472e-06
1.11225e-06
-1.22425e-06
1.25807e-06
-1.38722e-06
1.33891e-06
-1.47769e-06
1.3333e-06
-1.43359e-06
1.16605e-06
-1.21948e-06
7.98062e-07
-9.40416e-07
3.46074e-07
-8.10278e-07
6.58598e-08
-7.91884e-07
-4.92651e-08
-7.22863e-07
-1.61479e-07
-6.33332e-07
-2.5575e-07
-5.45272e-07
-3.36954e-07
-4.60639e-07
-4.30894e-07
-3.77953e-07
-5.45063e-07
-2.97259e-07
-6.7092e-07
-2.17657e-07
-7.95589e-07
-1.44035e-07
-9.0827e-07
-7.17786e-08
-9.87656e-07
-2.41988e-08
-1.01893e-06
1.97232e-08
-9.93085e-07
1.03912e-08
-9.34328e-07
-7.57009e-07
-2.14825e-07
7.06179e-07
-4.82232e-07
9.75065e-07
-7.53801e-07
1.19584e-06
-1.00041e-06
1.36028e-06
-1.20078e-06
1.46061e-06
-1.33947e-06
1.47866e-06
-1.36352e-06
1.3581e-06
-1.224e-06
1.02646e-06
-9.86861e-07
5.61236e-07
-8.5026e-07
2.09076e-07
-8.46532e-07
5.79816e-08
-7.92595e-07
-1.01177e-07
-7.01669e-07
-2.53779e-07
-6.00654e-07
-3.57248e-07
-4.92584e-07
-4.44058e-07
-3.79414e-07
-5.42587e-07
-2.68189e-07
-6.54444e-07
-1.66454e-07
-7.69296e-07
-7.44742e-08
-8.84969e-07
1.29772e-08
-9.90277e-07
9.04157e-08
-1.06323e-06
1.57651e-07
-1.07642e-06
1.8553e-07
-1.02512e-06
1.41686e-07
-8.9396e-07
-6.17925e-07
-2.22523e-07
9.31508e-07
-4.64976e-07
1.21979e-06
-6.93913e-07
1.42646e-06
-8.88483e-07
1.55702e-06
-1.03514e-06
1.60859e-06
-1.10843e-06
1.55357e-06
-1.05768e-06
1.30833e-06
-9.0604e-07
8.75838e-07
-7.88316e-07
4.43618e-07
-8.12497e-07
2.32744e-07
-8.39298e-07
8.93748e-08
-8.11536e-07
-1.33094e-07
-7.47304e-07
-3.17185e-07
-6.50871e-07
-4.52873e-07
-5.34378e-07
-5.59492e-07
-4.14481e-07
-6.61049e-07
-3.09937e-07
-7.57032e-07
-2.31977e-07
-8.44803e-07
-1.68474e-07
-9.45477e-07
-1.03882e-07
-1.05204e-06
-3.13891e-08
-1.13204e-06
5.06867e-08
-1.15809e-06
1.39446e-07
-1.11554e-06
2.46805e-07
-1.00472e-06
-7.91084e-07
4.12753e-07
-2.44211e-07
1.17924e-06
-4.77498e-07
1.45522e-06
-6.7804e-07
1.62881e-06
-8.36646e-07
1.71726e-06
-9.38258e-07
1.71243e-06
-9.49018e-07
1.56642e-06
-8.61048e-07
1.22246e-06
-7.339e-07
7.50805e-07
-7.08094e-07
4.20964e-07
-7.62322e-07
2.91589e-07
-7.98368e-07
1.21866e-07
-7.90499e-07
-1.36165e-07
-7.32171e-07
-3.74764e-07
-6.16048e-07
-5.6741e-07
-4.60048e-07
-7.13534e-07
-3.01264e-07
-8.17599e-07
-1.69978e-07
-8.85798e-07
-7.27745e-08
-9.39128e-07
4.27249e-09
-1.01962e-06
7.86245e-08
-1.12392e-06
1.62784e-07
-1.21465e-06
2.60142e-07
-1.25534e-06
3.72527e-07
-1.22963e-06
5.06841e-07
-1.14442e-06
-1.00657e-06
7.23305e-07
-2.4185e-07
1.42249e-06
-4.56061e-07
1.67091e-06
-6.20338e-07
1.79475e-06
-7.32345e-07
1.83132e-06
-7.81158e-07
1.76384e-06
-7.52317e-07
1.54082e-06
-6.58782e-07
1.13294e-06
-5.80222e-07
6.77267e-07
-5.9833e-07
4.44917e-07
-6.41949e-07
3.3794e-07
-6.8685e-07
1.76829e-07
-7.14207e-07
-1.08199e-07
-6.78708e-07
-4.07018e-07
-5.66976e-07
-6.76094e-07
-3.97297e-07
-8.80345e-07
-2.1911e-07
-9.92902e-07
-6.57462e-08
-1.03612e-06
5.74429e-08
-1.05942e-06
1.59323e-07
-1.11902e-06
2.5361e-07
-1.21641e-06
3.53018e-07
-1.31294e-06
4.64441e-07
-1.36689e-06
5.92583e-07
-1.3599e-06
7.45934e-07
-1.29768e-06
-1.1983e-06
9.38255e-07
-2.10139e-07
1.63457e-06
-3.89751e-07
1.85202e-06
-5.12011e-07
1.91863e-06
-5.77149e-07
1.89916e-06
-5.84261e-07
1.77488e-06
-5.38849e-07
1.50066e-06
-4.65645e-07
1.06639e-06
-4.24252e-07
6.44877e-07
-4.41021e-07
4.71168e-07
-4.6442e-07
3.73791e-07
-5.0987e-07
2.27509e-07
-5.76158e-07
-3.39074e-08
-5.86346e-07
-3.91599e-07
-5.04177e-07
-7.54336e-07
-3.41627e-07
-1.03952e-06
-1.56713e-07
-1.17461e-06
1.63723e-08
-1.20632e-06
1.68171e-07
-1.20871e-06
2.97625e-07
-1.24638e-06
4.13734e-07
-1.33099e-06
5.2802e-07
-1.42639e-06
6.48349e-07
-1.48722e-06
7.79659e-07
-1.49142e-06
9.24575e-07
-1.44337e-06
-1.36028e-06
1.08762e-06
-1.54969e-07
1.79034e-06
-2.92504e-07
1.99082e-06
-3.69671e-07
1.99819e-06
-3.94326e-07
1.92744e-06
-3.75161e-07
1.76054e-06
-3.29894e-07
1.46297e-06
-2.87872e-07
1.03438e-06
-2.71739e-07
6.42139e-07
-2.69375e-07
4.853e-07
-2.61094e-07
3.78898e-07
-2.83263e-07
2.66817e-07
-3.73696e-07
7.29053e-08
-4.47174e-07
-3.11752e-07
-4.12837e-07
-7.8406e-07
-2.65542e-07
-1.18311e-06
-7.89096e-08
-1.3581e-06
1.06873e-07
-1.38943e-06
2.785e-07
-1.37809e-06
4.30351e-07
-1.39634e-06
5.6572e-07
-1.46496e-06
6.92364e-07
-1.55214e-06
8.17337e-07
-1.61184e-06
9.45063e-07
-1.61946e-06
1.07886e-06
-1.57666e-06
-1.5001e-06
1.21929e-06
-8.95803e-08
1.88167e-06
-1.82129e-07
2.08528e-06
-2.17363e-07
2.03615e-06
-2.11631e-07
1.92504e-06
-1.76095e-07
1.73257e-06
-1.35958e-07
1.43129e-06
-1.16866e-07
1.02804e-06
-1.11409e-07
6.5355e-07
-7.13707e-08
4.63964e-07
-3.9328e-09
3.34902e-07
3.49557e-08
2.53559e-07
-5.33377e-08
1.77925e-07
-2.44744e-07
-1.08562e-07
-2.74622e-07
-7.48798e-07
-1.53901e-07
-1.30005e-06
2.53534e-08
-1.53438e-06
2.14798e-07
-1.57652e-06
3.97558e-07
-1.55888e-06
5.65013e-07
-1.56215e-06
7.14899e-07
-1.61354e-06
8.5029e-07
-1.68668e-06
9.7634e-07
-1.73745e-06
1.09793e-06
-1.74064e-06
1.21837e-06
-1.69688e-06
-1.62067e-06
1.3396e-06
-2.97055e-08
1.91246e-06
-6.83855e-08
2.1258e-06
-7.30897e-08
2.04319e-06
-4.4046e-08
1.90205e-06
8.95781e-10
1.69314e-06
4.09558e-08
1.40078e-06
4.90618e-08
1.0316e-06
3.09514e-08
6.85333e-07
4.20076e-08
4.70996e-07
7.49987e-08
3.18589e-07
1.26147e-07
2.1446e-07
1.30589e-07
2.02685e-07
-1.01717e-08
4.21687e-08
-9.35219e-08
-6.60354e-07
-9.08595e-09
-1.38104e-06
1.53044e-07
-1.69404e-06
3.38659e-07
-1.76022e-06
5.25349e-07
-1.74396e-06
7.01506e-07
-1.73689e-06
8.60347e-07
-1.77121e-06
1.00045e-06
-1.8259e-06
1.12479e-06
-1.86118e-06
1.23824e-06
-1.85366e-06
1.34573e-06
-1.80386e-06
-1.725e-06
1.45076e-06
2.88514e-08
1.88572e-06
3.80647e-08
2.11849e-06
5.64267e-08
2.02821e-06
9.81437e-08
1.86335e-06
1.514e-07
1.64711e-06
1.94011e-07
1.3662e-06
2.02507e-07
1.03175e-06
1.83548e-07
7.15575e-07
1.77209e-07
4.86904e-07
1.91004e-07
3.15023e-07
2.30776e-07
1.93087e-07
2.48214e-07
1.88167e-07
2.15233e-07
9.20782e-08
1.09619e-07
-5.49886e-07
1.56385e-07
-1.42503e-06
2.97801e-07
-1.8335e-06
4.74156e-07
-1.93506e-06
6.58778e-07
-1.92727e-06
8.37187e-07
-1.91411e-06
9.98947e-07
-1.93194e-06
1.13888e-06
-1.96501e-06
1.25812e-06
-1.97976e-06
1.36189e-06
-1.95696e-06
1.4568e-06
-1.89796e-06
-1.81555e-06
1.5479e-06
8.62958e-08
1.80048e-06
1.35336e-07
2.0711e-06
1.74093e-07
1.99155e-06
2.25931e-07
1.81674e-06
2.82208e-07
1.5947e-06
3.27099e-07
1.32766e-06
3.42238e-07
1.02383e-06
3.3306e-07
7.31815e-07
3.3023e-07
4.97931e-07
3.45612e-07
3.0828e-07
3.78259e-07
1.58653e-07
4.14168e-07
1.70175e-07
4.04178e-07
1.0819e-07
3.09358e-07
-4.52024e-07
3.32007e-07
-1.44558e-06
4.55142e-07
-1.95514e-06
6.19728e-07
-2.09853e-06
7.97386e-07
-2.10396e-06
9.71641e-07
-2.08742e-06
1.12942e-06
-2.08884e-06
1.26314e-06
-2.09797e-06
1.37301e-06
-2.08905e-06
1.46532e-06
-2.04844e-06
1.54765e-06
-1.97995e-06
-1.89431e-06
1.62735e-06
1.38934e-07
1.66357e-06
2.30724e-07
1.98113e-06
2.92061e-07
1.9332e-06
3.48727e-07
1.76091e-06
4.06668e-07
1.54262e-06
4.51372e-07
1.28668e-06
4.7255e-07
1.00772e-06
4.72651e-07
7.36461e-07
4.71571e-07
5.02792e-07
4.84164e-07
2.96765e-07
5.17183e-07
1.37085e-07
5.51172e-07
1.32213e-07
5.59275e-07
1.0749e-07
4.99547e-07
-3.89839e-07
5.15979e-07
-1.46055e-06
6.24795e-07
-2.06293e-06
7.75951e-07
-2.24889e-06
9.41733e-07
-2.26902e-06
1.10475e-06
-2.24972e-06
1.25076e-06
-2.23412e-06
1.37156e-06
-2.21813e-06
1.46798e-06
-2.18479e-06
1.54707e-06
-2.12725e-06
1.6186e-06
-2.0503e-06
-1.96466e-06
1.68937e-06
1.88888e-07
1.47567e-06
3.21921e-07
1.84957e-06
4.07871e-07
1.84784e-06
4.75467e-07
1.69802e-06
5.31762e-07
1.48703e-06
5.76933e-07
1.24497e-06
6.01285e-07
9.86154e-07
6.07431e-07
7.32421e-07
6.10186e-07
5.02169e-07
6.25665e-07
2.84752e-07
6.44602e-07
1.10967e-07
6.83381e-07
1.01682e-07
7.03009e-07
8.74549e-08
6.83563e-07
-3.69527e-07
7.07041e-07
-1.48313e-06
8.05958e-07
-2.16115e-06
9.40934e-07
-2.38335e-06
1.08905e-06
-2.41667e-06
1.23336e-06
-2.39351e-06
1.36001e-06
-2.36021e-06
1.46218e-06
-2.31976e-06
1.54222e-06
-2.26443e-06
1.60909e-06
-2.19311e-06
1.6716e-06
-2.11277e-06
-2.02992e-06
1.73789e-06
2.36167e-07
1.24116e-06
4.04222e-07
1.68255e-06
5.18045e-07
1.73639e-06
5.96768e-07
1.61884e-06
6.58202e-07
1.42872e-06
7.03027e-07
1.20179e-06
7.29523e-07
9.60212e-07
7.42536e-07
7.20351e-07
7.52371e-07
4.92002e-07
7.64369e-07
2.69611e-07
7.85119e-07
9.61851e-08
8.12123e-07
6.7777e-08
8.4961e-07
5.12254e-08
8.64707e-07
-3.84043e-07
9.02788e-07
-1.52072e-06
9.9339e-07
-2.25137e-06
1.10895e-06
-2.49863e-06
1.23358e-06
-2.54103e-06
1.35227e-06
-2.51186e-06
1.45361e-06
-2.46116e-06
1.5338e-06
-2.39952e-06
1.59766e-06
-2.32769e-06
1.65394e-06
-2.24942e-06
1.71233e-06
-2.16984e-06
-2.09472e-06
1.77735e-06
2.78431e-07
9.63158e-07
4.74565e-07
1.48713e-06
6.10725e-07
1.60025e-06
7.05865e-07
1.52647e-06
7.72807e-07
1.36136e-06
8.20066e-07
1.15477e-06
8.51166e-07
9.289e-07
8.71441e-07
6.99031e-07
8.88021e-07
4.74127e-07
9.02115e-07
2.55992e-07
9.15308e-07
7.46086e-08
9.47674e-07
3.88272e-08
9.84193e-07
1.19646e-08
1.03752e-06
-4.37769e-07
1.09609e-06
-1.57914e-06
1.17942e-06
-2.33451e-06
1.27333e-06
-2.59243e-06
1.36881e-06
-2.63641e-06
1.45663e-06
-2.5995e-06
1.52974e-06
-2.53402e-06
1.58811e-06
-2.45758e-06
1.63808e-06
-2.37751e-06
1.68869e-06
-2.29899e-06
1.74537e-06
-2.22682e-06
-2.16089e-06
1.81251e-06
2.99338e-07
6.64721e-07
5.27514e-07
1.25939e-06
6.84284e-07
1.44495e-06
7.90355e-07
1.41871e-06
8.65639e-07
1.28736e-06
9.17681e-07
1.10141e-06
9.55268e-07
8.89955e-07
9.82604e-07
6.69568e-07
1.00466e-06
4.49776e-07
1.01885e-06
2.37045e-07
1.04063e-06
5.56765e-08
1.07258e-06
-4.88292e-10
1.10331e-06
-1.99643e-08
1.19629e-06
-5.31229e-07
1.27904e-06
-1.662e-06
1.35665e-06
-2.41214e-06
1.42596e-06
-2.66178e-06
1.48817e-06
-2.69864e-06
1.54342e-06
-2.65471e-06
1.58953e-06
-2.58e-06
1.62967e-06
-2.49754e-06
1.67077e-06
-2.41815e-06
1.71837e-06
-2.34695e-06
1.77695e-06
-2.2841e-06
-2.22973e-06
1.84576e-06
2.76356e-07
3.87903e-07
5.49257e-07
9.86843e-07
7.29534e-07
1.26363e-06
8.48813e-07
1.30105e-06
9.29282e-07
1.20477e-06
9.87434e-07
1.04181e-06
1.03001e-06
8.44838e-07
1.06205e-06
6.34476e-07
1.08872e-06
4.1999e-07
1.11376e-06
2.10797e-07
1.13623e-06
2.50931e-08
1.17583e-06
-3.97605e-08
1.20751e-06
-5.50924e-08
1.33801e-06
-6.62835e-07
1.44605e-06
-1.77039e-06
1.51708e-06
-2.48333e-06
1.55753e-06
-2.70237e-06
1.5869e-06
-2.72815e-06
1.61283e-06
-2.68071e-06
1.63712e-06
-2.60427e-06
1.66486e-06
-2.5252e-06
1.70106e-06
-2.45442e-06
1.7491e-06
-2.39402e-06
1.80792e-06
-2.34355e-06
-2.29874e-06
1.87778e-06
2.12708e-07
1.75754e-07
5.22291e-07
6.76956e-07
7.39325e-07
1.04731e-06
8.7352e-07
1.1649e-06
9.6176e-07
1.11565e-06
1.0236e-06
9.77639e-07
1.06828e-06
7.96615e-07
1.10341e-06
5.95726e-07
1.1349e-06
3.846e-07
1.16644e-06
1.73741e-07
1.19917e-06
-7.6726e-09
1.24217e-06
-8.97713e-08
1.29447e-06
-1.10066e-07
1.46051e-06
-8.30046e-07
1.59141e-06
-1.90179e-06
1.65011e-06
-2.54232e-06
1.66302e-06
-2.71553e-06
1.66535e-06
-2.7307e-06
1.66839e-06
-2.6839e-06
1.67766e-06
-2.61363e-06
1.69836e-06
-2.5459e-06
1.73276e-06
-2.48852e-06
1.77965e-06
-2.44152e-06
1.83844e-06
-2.40116e-06
-2.36641e-06
1.90585e-06
1.36227e-07
3.74149e-08
4.50796e-07
3.62046e-07
7.05735e-07
7.91216e-07
8.63336e-07
1.00713e-06
9.59469e-07
1.01732e-06
1.02333e-06
9.10585e-07
1.06813e-06
7.47932e-07
1.10336e-06
5.55879e-07
1.13869e-06
3.4467e-07
1.17806e-06
1.31298e-07
1.21431e-06
-5.17498e-08
1.26708e-06
-1.45188e-07
1.35336e-06
-1.99645e-07
1.56265e-06
-1.04071e-06
1.70993e-06
-2.04972e-06
1.74963e-06
-2.58239e-06
1.74195e-06
-2.70815e-06
1.72531e-06
-2.71433e-06
1.71283e-06
-2.67165e-06
1.71364e-06
-2.61459e-06
1.73086e-06
-2.56318e-06
1.76317e-06
-2.52109e-06
1.8086e-06
-2.48611e-06
1.86329e-06
-2.4567e-06
-2.42962e-06
1.92717e-06
6.93307e-08
-3.40017e-08
3.39332e-07
9.07397e-08
6.28014e-07
5.02333e-07
8.1314e-07
8.20115e-07
9.20031e-07
9.08327e-07
9.8504e-07
8.41988e-07
1.0288e-06
6.99697e-07
1.06382e-06
5.15794e-07
1.10038e-06
3.02986e-07
1.14526e-06
8.01143e-08
1.19562e-06
-1.05134e-07
1.23248e-06
-1.88392e-07
1.39125e-06
-3.61216e-07
1.65073e-06
-1.30154e-06
1.79977e-06
-2.19944e-06
1.8176e-06
-2.60065e-06
1.79483e-06
-2.68574e-06
1.76587e-06
-2.68569e-06
1.74582e-06
-2.65187e-06
1.74339e-06
-2.61237e-06
1.75864e-06
-2.57856e-06
1.78863e-06
-2.55091e-06
1.82945e-06
-2.52772e-06
1.8803e-06
-2.50653e-06
-2.48851e-06
1.93877e-06
2.5287e-08
-6.19891e-08
2.03312e-07
-8.89236e-08
5.01816e-07
2.02106e-07
7.19019e-07
6.01621e-07
8.39815e-07
7.84843e-07
9.07307e-07
7.70744e-07
9.50484e-07
6.51749e-07
9.8454e-07
4.76338e-07
1.02063e-06
2.61167e-07
1.07302e-06
2.28177e-08
1.12172e-06
-1.61101e-07
1.15933e-06
-2.29963e-07
1.4315e-06
-6.35952e-07
1.7299e-06
-1.60123e-06
1.85857e-06
-2.32884e-06
1.8544e-06
-2.59694e-06
1.82142e-06
-2.65314e-06
1.78695e-06
-2.65155e-06
1.76597e-06
-2.63118e-06
1.76342e-06
-2.61004e-06
1.77723e-06
-2.59254e-06
1.80371e-06
-2.57774e-06
1.84089e-06
-2.56419e-06
1.88614e-06
-2.55275e-06
-2.54234e-06
1.94046e-06
4.38404e-08
-1.08246e-07
1.26642e-07
-1.73847e-07
3.51403e-07
-2.45056e-08
5.83063e-07
3.68319e-07
7.17983e-07
6.47201e-07
7.89712e-07
6.95389e-07
8.33292e-07
6.03403e-07
8.65739e-07
4.3827e-07
9.01273e-07
2.19652e-07
9.49432e-07
-3.22164e-08
9.80752e-07
-1.97042e-07
1.10919e-06
-3.62531e-07
1.49762e-06
-1.0265e-06
1.79362e-06
-1.89838e-06
1.88046e-06
-2.41635e-06
1.86117e-06
-2.57812e-06
1.82366e-06
-2.61602e-06
1.79012e-06
-2.61837e-06
1.77208e-06
-2.61344e-06
1.77088e-06
-2.60911e-06
1.78362e-06
-2.60547e-06
1.80757e-06
-2.60159e-06
1.84038e-06
-2.59786e-06
1.8826e-06
-2.59413e-06
-2.59289e-06
1.93263e-06
6.02383e-08
-1.69832e-07
1.04331e-07
-2.19596e-07
2.22605e-07
-1.44164e-07
4.23799e-07
1.64896e-07
5.61146e-07
5.07746e-07
6.35683e-07
6.17511e-07
6.79638e-07
5.54938e-07
7.10345e-07
4.02375e-07
7.42015e-07
1.81705e-07
7.68213e-07
-6.40067e-08
8.30738e-07
-2.64319e-07
1.1526e-06
-6.87052e-07
1.59602e-06
-1.47142e-06
1.83726e-06
-2.14056e-06
1.8759e-06
-2.45561e-06
1.84545e-06
-2.54813e-06
1.80599e-06
-2.57694e-06
1.77708e-06
-2.5898e-06
1.76405e-06
-2.60072e-06
1.76527e-06
-2.61057e-06
1.7779e-06
-2.61829e-06
1.79988e-06
-2.62396e-06
1.83098e-06
-2.62837e-06
1.86961e-06
-2.63378e-06
-2.6399e-06
1.91695e-06
7.87863e-08
-2.49327e-07
1.24661e-07
-2.66022e-07
1.49071e-07
-1.70442e-07
2.69284e-07
4.40487e-08
3.83268e-07
3.92143e-07
4.53356e-07
5.44862e-07
4.94999e-07
5.09858e-07
5.22659e-07
3.69899e-07
5.25455e-07
1.73693e-07
5.60118e-07
-1.03308e-07
8.08394e-07
-5.15082e-07
1.29715e-06
-1.17732e-06
1.69109e-06
-1.86646e-06
1.83994e-06
-2.29016e-06
1.83815e-06
-2.45436e-06
1.80282e-06
-2.51322e-06
1.76961e-06
-2.54409e-06
1.74986e-06
-2.57037e-06
1.74362e-06
-2.59477e-06
1.74824e-06
-2.61545e-06
1.76179e-06
-2.63205e-06
1.78356e-06
-2.64569e-06
1.8126e-06
-2.65828e-06
1.84988e-06
-2.67039e-06
-2.68455e-06
1.89396e-06
7.81204e-08
-3.27311e-07
1.15385e-07
-3.03592e-07
1.03804e-07
-1.5793e-07
1.35861e-07
1.18006e-08
1.99451e-07
3.27758e-07
2.53492e-07
4.89491e-07
2.87432e-07
4.73365e-07
3.04094e-07
3.49831e-07
2.84282e-07
1.88576e-07
4.97668e-07
-3.18924e-07
9.74213e-07
-9.92868e-07
1.4593e-06
-1.66332e-06
1.72138e-06
-2.12923e-06
1.7834e-06
-2.35273e-06
1.76855e-06
-2.43993e-06
1.74056e-06
-2.48559e-06
1.72102e-06
-2.52486e-06
1.71296e-06
-2.56261e-06
1.71408e-06
-2.59615e-06
1.72255e-06
-2.62414e-06
1.73774e-06
-2.64744e-06
1.75943e-06
-2.66777e-06
1.7882e-06
-2.68658e-06
1.82289e-06
-2.70606e-06
-2.72606e-06
1.86462e-06
6.42036e-08
-3.9108e-07
7.90679e-08
-3.17538e-07
5.41412e-08
-1.32267e-07
1.42877e-08
5.2524e-08
1.82483e-08
3.25139e-07
4.72872e-08
4.60218e-07
7.34678e-08
4.45893e-07
5.06081e-08
3.69618e-07
1.94024e-07
4.28323e-08
6.72603e-07
-7.98354e-07
1.19783e-06
-1.5185e-06
1.54295e-06
-2.00892e-06
1.67756e-06
-2.26424e-06
1.6959e-06
-2.37145e-06
1.683e-06
-2.42736e-06
1.67167e-06
-2.47455e-06
1.66823e-06
-2.52168e-06
1.67101e-06
-2.56565e-06
1.67847e-06
-2.60384e-06
1.69041e-06
-2.6363e-06
1.70725e-06
-2.66447e-06
1.72955e-06
-2.69006e-06
1.75695e-06
-2.71479e-06
1.79052e-06
-2.73909e-06
-2.76522e-06
1.82911e-06
2.8248e-08
-4.18614e-07
-2.3075e-10
-2.88366e-07
-5.19921e-08
-7.88715e-08
-1.29819e-07
1.34765e-07
-1.50758e-07
3.46511e-07
-1.4475e-07
4.54836e-07
-1.48815e-07
4.49495e-07
-7.78143e-08
2.9776e-07
3.9694e-07
-4.32739e-07
9.35125e-07
-1.33666e-06
1.33005e-06
-1.91377e-06
1.52378e-06
-2.20275e-06
1.58261e-06
-2.32339e-06
1.59522e-06
-2.38434e-06
1.59998e-06
-2.43236e-06
1.60699e-06
-2.4818e-06
1.61615e-06
-2.53106e-06
1.62655e-06
-2.57627e-06
1.6386e-06
-2.61609e-06
1.65331e-06
-2.6512e-06
1.67162e-06
-2.68296e-06
1.69397e-06
-2.71277e-06
1.72114e-06
-2.74157e-06
1.75229e-06
-2.77116e-06
-2.80135e-06
1.78856e-06
-3.46665e-08
-3.83694e-07
-1.13826e-07
-2.08269e-07
-1.97282e-07
7.59902e-09
-2.75367e-07
2.12089e-07
-3.05187e-07
3.77617e-07
-3.08043e-07
4.57561e-07
-2.5929e-07
3.99861e-07
8.31923e-08
-4.64204e-08
6.6069e-07
-1.01061e-06
1.09586e-06
-1.77219e-06
1.33968e-06
-2.15751e-06
1.44537e-06
-2.30883e-06
1.48938e-06
-2.36755e-06
1.51269e-06
-2.40784e-06
1.53187e-06
-2.45173e-06
1.54957e-06
-2.49968e-06
1.56551e-06
-2.54718e-06
1.58038e-06
-2.59132e-06
1.59556e-06
-2.63146e-06
1.61239e-06
-2.6682e-06
1.63179e-06
-2.70253e-06
1.65446e-06
-2.73543e-06
1.68024e-06
-2.76809e-06
1.71021e-06
-2.80069e-06
-2.83517e-06
1.74349e-06
-9.85473e-08
-2.84236e-07
-2.0472e-07
-1.00838e-07
-3.07835e-07
1.09454e-07
-3.8131e-07
2.86263e-07
-4.14761e-07
4.1045e-07
-4.04522e-07
4.45623e-07
-1.31847e-07
1.24859e-07
4.07177e-07
-5.86656e-07
8.77193e-07
-1.48115e-06
1.17205e-06
-2.06716e-06
1.31523e-06
-2.30118e-06
1.38167e-06
-2.37519e-06
1.41955e-06
-2.40569e-06
1.44882e-06
-2.43731e-06
1.4743e-06
-2.47738e-06
1.49633e-06
-2.52187e-06
1.51548e-06
-2.56649e-06
1.53304e-06
-2.60904e-06
1.55043e-06
-2.649e-06
1.56878e-06
-2.68671e-06
1.58892e-06
-2.72282e-06
1.61123e-06
-2.75808e-06
1.63651e-06
-2.79304e-06
1.66409e-06
-2.82912e-06
-2.86605e-06
1.69506e-06
-1.45551e-07
-1.38117e-07
-2.80538e-07
3.38209e-08
-3.867e-07
2.15995e-07
-4.5074e-07
3.49683e-07
-4.45113e-07
4.02116e-07
-2.37668e-07
2.36131e-07
1.86212e-07
-3.01647e-07
6.62146e-07
-1.06362e-06
1.01911e-06
-1.8386e-06
1.20785e-06
-2.2564e-06
1.29068e-06
-2.38394e-06
1.33407e-06
-2.41909e-06
1.36699e-06
-2.43878e-06
1.39624e-06
-2.46674e-06
1.42241e-06
-2.50372e-06
1.44552e-06
-2.54513e-06
1.46617e-06
-2.58728e-06
1.48537e-06
-2.62838e-06