/*--------------------------------*- C++ -*----------------------------------*\
  =========                 |
  \\      /  F ield         | OpenFOAM: The Open Source CFD Toolbox
   \\    /   O peration     | Website:  https://openfoam.org
    \\  /    A nd           | Version:  13
     \\/     M anipulation  |
\*---------------------------------------------------------------------------*/
FoamFile
{
    format      ascii;
    class       volVectorField;
    location    "19";
    object      U;
}
// * * * * * * * * * * * * * * * * * * * * * * * * * * * * * * * * * * * * * //

dimensions      [0 1 -1 0 0 0 0];

internalField   nonuniform List<vector> 
6440
(
(-0.0203472 0.0598746 0)
(-0.170861 0.0843456 0)
(-0.357009 0.0934989 -3.59236e-16)
(-0.483774 0.0846135 3.05917e-16)
(-0.525323 0.0759169 0)
(-0.448635 0.0715089 -6.16183e-16)
(-0.357686 0.0660022 6.96281e-16)
(-0.28025 0.0740321 0)
(-0.248655 0.103107 0)
(-0.257743 0.130352 0)
(-0.289304 0.107353 3.52281e-15)
(-0.288084 0.0570246 -5.80107e-15)
(-0.264508 -0.0137015 2.56597e-15)
(-0.244969 -0.0162896 0)
(-0.229669 -0.00793541 -3.90446e-15)
(-0.229753 0.00989435 3.54163e-15)
(-0.253218 0.0287788 0)
(-0.289088 0.0291117 0)
(-0.311128 0.00761344 0)
(-0.297542 -0.0461064 0)
(-0.233795 -0.0925394 -3.07767e-15)
(-0.114085 -0.109328 8.50285e-15)
(0.0109348 -0.0737868 -6.05336e-15)
(0.12885 -0.0294233 -7.76183e-15)
(0.0931041 0.023983 6.52801e-15)
(-0.00956666 0.194038 0)
(-0.161637 0.224277 0)
(-0.288917 0.18726 -4.52987e-16)
(-0.286068 0.134351 6.5173e-16)
(-0.145788 0.0416085 0)
(0.0165115 -0.0764052 -9.60788e-16)
(0.170471 -0.136727 1.20227e-15)
(0.299777 -0.137511 -4.8379e-16)
(0.384258 -0.0866778 0)
(0.413228 -0.00504228 0)
(0.386629 0.0858187 0)
(0.290042 0.165909 -1.05211e-15)
(0.136122 0.208476 1.3133e-15)
(-0.0900084 0.161351 1.97724e-15)
(-0.241409 0.0678258 -2.06878e-15)
(-0.287928 0.0855481 0)
(-0.334822 0.107252 0)
(-0.3895 0.07297 0)
(-0.413643 -0.0175933 0)
(-0.404705 -0.1323 0)
(-0.356854 -0.222024 -2.08691e-15)
(-0.265889 -0.239325 2.34727e-15)
(-0.134348 -0.147786 0)
(0.0539331 0.0546292 -7.74442e-15)
(0.0856431 0.127029 1.28149e-14)
(0.0264872 0.241795 0)
(-0.025032 0.259024 0)
(-0.0294028 0.209941 0)
(0.138037 0.0801909 0)
(0.368478 -0.146736 0)
(0.567126 -0.308038 0)
(0.710497 -0.343197 2.60773e-16)
(0.792165 -0.275826 -2.58122e-16)
(0.820871 -0.147787 0)
(0.803756 0.00584184 0)
(0.747703 0.15973 0)
(0.65192 0.29673 0)
(0.513168 0.402877 0)
(0.312065 0.448362 7.74157e-16)
(0.0519824 0.390385 -3.18416e-15)
(-0.179842 0.270917 2.61715e-15)
(-0.293751 0.202398 0)
(-0.360731 0.107203 0)
(-0.397625 -0.0563347 0)
(-0.392552 -0.241137 0)
(-0.360948 -0.357299 0)
(-0.304204 -0.370921 0)
(-0.220253 -0.27215 2.597e-15)
(-0.091927 -0.0357382 -5.14764e-15)
(0.0463137 0.155112 6.22492e-15)
(0.0296842 0.224471 0)
(0.0500064 0.225041 0)
(0.244467 0.0556981 -2.84852e-16)
(0.536927 -0.262371 1.52114e-16)
(0.77921 -0.483728 0)
(0.935018 -0.538742 -1.97989e-16)
(1.01511 -0.461803 1.97761e-16)
(1.03428 -0.304588 0)
(1.01462 -0.108469 4.91962e-16)
(0.970378 0.097957 -5.38229e-16)
(0.891773 0.293506 5.18519e-16)
(0.786431 0.463201 -1.03545e-15)
(0.6603 0.596278 5.36259e-16)
(0.508085 0.678989 0)
(0.311289 0.681581 0)
(0.0577282 0.569424 0)
(-0.158349 0.370779 2.16962e-15)
(-0.276561 0.134203 -3.45873e-19)
(-0.329158 -0.158649 -2.97282e-15)
(-0.323052 -0.407415 0)
(-0.298368 -0.512981 0)
(-0.269807 -0.494977 2.09282e-15)
(-0.212196 -0.362515 -2.61186e-15)
(-0.143681 -0.107176 -4.41547e-15)
(-0.0105732 0.156605 1.09572e-14)
(0.0214332 0.188729 0)
(0.211399 -0.0023441 0)
(0.544046 -0.408058 -1.40292e-16)
(0.820406 -0.6702 9.93781e-17)
(0.985014 -0.732931 0)
(1.06864 -0.649239 -1.72938e-16)
(1.10161 -0.474528 1.85261e-16)
(1.08702 -0.250763 0)
(1.05662 -0.00632784 5.07064e-16)
(0.99087 0.236691 -4.97754e-16)
(0.89604 0.459475 4.80741e-16)
(0.780674 0.643884 -9.61888e-16)
(0.656445 0.782166 4.96918e-16)
(0.529532 0.869501 0)
(0.38999 0.889335 1.16402e-15)
(0.211654 0.80678 -1.37362e-15)
(0.000828042 0.584912 1.73811e-15)
(-0.166232 0.213649 -2.10032e-19)
(-0.253119 -0.253934 -4.0048e-15)
(-0.2505 -0.55144 0)
(-0.237554 -0.609992 2.06694e-15)
(-0.228436 -0.574699 3.0228e-19)
(-0.179346 -0.40536 -2.60613e-15)
(-0.117836 -0.0951225 -4.23354e-15)
(-0.0540291 0.161157 4.98532e-15)
(0.0918358 0.0369836 0)
(0.419542 -0.5118 0)
(0.708865 -0.850127 -9.87973e-17)
(0.87896 -0.928455 8.50131e-17)
(0.973897 -0.842373 0)
(0.985972 -0.66318 -1.76911e-16)
(0.984114 -0.427508 2.00027e-16)
(0.964065 -0.156893 0)
(0.924021 0.129115 5.64606e-16)
(0.861858 0.403842 -5.11401e-16)
(0.769527 0.644897 4.88427e-16)
(0.655101 0.831629 -9.75114e-16)
(0.538074 0.957461 5.04989e-16)
(0.431999 1.02597 0)
(0.332563 1.03214 -1.17424e-15)
(0.216551 0.946493 1.33176e-15)
(0.0720373 0.728925 1.58854e-15)
(-0.0832379 0.306394 8.02793e-20)
(-0.195616 -0.332869 -5.36927e-15)
(-0.204631 -0.612735 0)
(-0.218145 -0.647342 -2.15348e-15)
(-0.208888 -0.597729 4.16618e-15)
(-0.160404 -0.401921 -2.46338e-15)
(-0.0788863 -0.0167251 -4.87506e-15)
(-0.0645393 0.174381 4.91568e-15)
(0.179133 -0.504521 0)
(0.47588 -0.997262 0)
(0.657852 -1.11483 -8.94468e-17)
(0.732279 -1.04107 8.64419e-17)
(0.751516 -0.869651 0)
(0.752992 -0.639525 -2.04138e-16)
(0.743429 -0.368156 2.4578e-16)
(0.718368 -0.0612914 0)
(0.677488 0.263886 6.7575e-16)
(0.621366 0.571236 -5.85339e-16)
(0.536296 0.824366 5.44959e-16)
(0.428773 1.00488 -1.07974e-15)
(0.326707 1.10868 5.60983e-16)
(0.248069 1.14547 0)
(0.184665 1.11757 0)
(0.114639 1.00506 0)
(0.0295477 0.767398 1.37407e-15)
(-0.0780321 0.311823 3.09969e-19)
(-0.192632 -0.495639 -7.62306e-15)
(-0.222364 -0.588002 0)
(-0.249575 -0.622535 0)
(-0.233489 -0.566183 2.13783e-15)
(-0.186392 -0.35618 -2.58612e-15)
(-0.0580185 0.0377903 -5.43234e-15)
(-0.0501333 0.195702 5.03752e-15)
(0.168964 -0.965147 0)
(0.380658 -1.2407 0)
(0.475618 -1.21668 -9.33787e-17)
(0.487688 -1.07652 9.73967e-17)
(0.474181 -0.859612 0)
(0.459183 -0.597534 -2.65042e-16)
(0.442647 -0.297213 3.62827e-16)
(0.412544 0.0196697 0)
(0.361595 0.372527 9.76986e-16)
(0.298103 0.714379 -7.80135e-16)
(0.217093 0.977976 6.86092e-16)
(0.124913 1.13833 -1.17453e-15)
(0.0507617 1.21108 5.00938e-16)
(0.00399503 1.21198 0)
(-0.0281899 1.14569 0)
(-0.0619638 0.994461 0)
(-0.103606 0.713744 1.16994e-15)
(-0.16423 0.203527 3.52871e-19)
(-0.2504 -0.473893 -5.57486e-15)
(-0.320032 -0.500961 0)
(-0.347111 -0.525757 0)
(-0.344559 -0.516475 1.77146e-15)
(-0.274812 -0.356995 -2.02851e-15)
(-0.0982338 -0.0164744 -3.96458e-15)
(-0.0120283 0.177558 1.14429e-14)
(0.110665 -1.23689 0)
(0.243645 -1.36091 0)
(0.27201 -1.25784 0)
(0.229629 -1.05158 0)
(0.184253 -0.793924 2.9363e-16)
(0.151271 -0.493522 -4.26513e-16)
(0.123055 -0.142675 9.4022e-16)
(0.119846 0.208812 -1.40269e-15)
(0.0338118 0.509738 1.06003e-15)
(-0.0732783 0.833306 1.15281e-18)
(-0.15574 1.08253 1.09814e-18)
(-0.22199 1.22306 -3.96803e-16)
(-0.256755 1.26722 -3.69649e-16)
(-0.270026 1.22401 7.29407e-16)
(-0.276988 1.11606 -1.14105e-15)
(-0.282278 0.918759 8.42244e-16)
(-0.292457 0.567886 0)
(-0.319668 0.0171367 1.8012e-15)
(-0.386408 -0.297283 -2.70637e-15)
(-0.448661 -0.361309 1.86222e-15)
(-0.480012 -0.477368 -5.52061e-19)
(-0.483264 -0.536659 -4.99867e-19)
(-0.411262 -0.445169 -1.5887e-15)
(-0.213423 -0.16005 0)
(0.00580025 0.134075 -7.24149e-15)
(0.0568148 -1.36351 0)
(0.119242 -1.39529 0)
(0.0777204 -1.20001 0)
(-0.0147406 -0.957788 0)
(-0.0853765 -0.672982 -4.04771e-16)
(-0.132582 -0.353302 5.27234e-16)
(-0.165683 -0.010904 -7.90627e-16)
(-0.244643 0.319811 4.65306e-16)
(-0.362396 0.622739 0)
(-0.466063 0.923148 -4.13121e-16)
(-0.52456 1.14807 -7.57577e-19)
(-0.552362 1.24568 3.09046e-16)
(-0.552743 1.25488 0)
(-0.543794 1.18931 -3.07409e-16)
(-0.533109 1.03764 9.89822e-16)
(-0.513059 0.780787 -7.59112e-16)
(-0.488395 0.376974 1.00732e-15)
(-0.480883 -0.025476 -1.66991e-15)
(-0.517756 -0.167388 0)
(-0.558335 -0.319331 -1.45145e-15)
(-0.583993 -0.489703 2.51624e-15)
(-0.596929 -0.586402 -2.36942e-15)
(-0.550974 -0.564764 1.27052e-15)
(-0.373926 -0.351327 0)
(-0.0621208 0.0357176 -4.93822e-15)
(0.00718604 -1.36993 0)
(0.00591308 -1.28744 0)
(-0.097662 -1.07657 0)
(-0.22916 -0.820076 0)
(-0.342138 -0.520159 3.29459e-16)
(-0.447446 -0.193165 -3.9009e-16)
(-0.543311 0.138725 4.03549e-16)
(-0.637487 0.451223 -2.58856e-16)
(-0.741096 0.753435 3.83327e-16)
(-0.810955 1.02118 5.2091e-19)
(-0.836743 1.19756 -2.74406e-16)
(-0.834422 1.24646 0)
(-0.81791 1.23614 -2.62027e-16)
(-0.797545 1.12515 5.46063e-16)
(-0.762275 0.918869 -9.08695e-16)
(-0.697717 0.607169 7.34735e-16)
(-0.617957 0.247737 0)
(-0.573031 0.0176381 1.56075e-15)
(-0.582342 -0.144004 -1.46799e-15)
(-0.591304 -0.347822 1.29433e-15)
(-0.609142 -0.51835 -2.21275e-19)
(-0.622227 -0.639648 -1.10104e-15)
(-0.615629 -0.68747 0)
(-0.504452 -0.573617 0)
(-0.183399 -0.206422 0)
(-0.0442183 -1.27614 0)
(-0.103325 -1.13469 0)
(-0.247493 -0.910808 1.27415e-16)
(-0.419669 -0.640121 -1.36276e-16)
(-0.572255 -0.334548 0)
(-0.71233 -0.0139369 3.35056e-16)
(-0.835319 0.303249 -5.09261e-16)
(-0.943986 0.610136 1.86408e-16)
(-1.0302 0.894666 0)
(-1.07588 1.11802 0)
(-1.08283 1.22539 0)
(-1.06824 1.23975 2.35599e-16)
(-1.04276 1.19831 -2.38255e-16)
(-0.998976 1.01908 -2.56796e-16)
(-0.910803 0.744556 -3.00741e-16)
(-0.774417 0.413647 7.87123e-16)
(-0.650634 0.148702 1.1418e-15)
(-0.606458 -0.0256743 -1.48055e-15)
(-0.593324 -0.224834 0)
(-0.58307 -0.414319 0)
(-0.593008 -0.565854 1.1525e-15)
(-0.60795 -0.694341 -1.09566e-15)
(-0.604232 -0.781737 0)
(-0.561694 -0.746516 1.22648e-15)
(-0.269705 -0.452662 -3.94892e-15)
(-0.0968628 -1.11327 0)
(-0.208076 -0.931607 0)
(-0.376296 -0.704028 -1.31428e-16)
(-0.574158 -0.432076 1.37454e-16)
(-0.749089 -0.132801 2.93679e-16)
(-0.906012 0.171837 -5.39119e-16)
(-1.04261 0.473481 3.8433e-16)
(-1.1547 0.761757 -1.51487e-16)
(-1.23196 1.00957 0)
(-1.26766 1.17474 2.30135e-16)
(-1.26876 1.22142 -2.19845e-16)
(-1.24748 1.21108 -2.19712e-16)
(-1.19841 1.10167 -2.53593e-19)
(-1.09457 0.832646 5.21791e-16)
(-0.916715 0.495001 -1.00758e-15)
(-0.726637 0.203982 9.73544e-16)
(-0.633372 0.0319022 0)
(-0.598849 -0.138949 0)
(-0.565018 -0.331882 0)
(-0.550401 -0.494492 1.26806e-15)
(-0.552406 -0.630544 -1.20756e-15)
(-0.551507 -0.749308 0)
(-0.547727 -0.842873 0)
(-0.564134 -0.861519 -1.17655e-15)
(-0.313908 -0.63873 -1.17106e-19)
(-0.145729 -0.919382 0)
(-0.306319 -0.699519 0)
(-0.483225 -0.474247 1.43599e-16)
(-0.691535 -0.2078 -1.47177e-16)
(-0.877873 0.0764614 -2.76369e-16)
(-1.04336 0.363121 4.12657e-16)
(-1.18579 0.642969 -3.17199e-16)
(-1.29732 0.897162 1.31123e-16)
(-1.36985 1.09494 0)
(-1.39997 1.19105 -2.13329e-16)
(-1.39345 1.20188 2.08845e-16)
(-1.35523 1.13046 2.13926e-16)
(-1.23702 0.905595 -2.3619e-16)
(-1.03199 0.537194 -2.99907e-16)
(-0.789955 0.196846 -4.44388e-16)
(-0.657036 0.0292816 1.27313e-15)
(-0.621384 -0.0898036 1.46815e-15)
(-0.579045 -0.267009 -1.43015e-15)
(-0.552107 -0.438452 0)
(-0.54699 -0.582155 -1.29119e-15)
(-0.542541 -0.706153 2.49776e-15)
(-0.525001 -0.809185 -1.21383e-15)
(-0.511644 -0.883625 0)
(-0.510913 -0.924737 1.19729e-15)
(-0.329483 -0.755596 -1.46523e-15)
(-0.184142 -0.710597 7.92951e-17)
(-0.387414 -0.457714 8.45965e-17)
(-0.563132 -0.230722 -1.67016e-16)
(-0.772692 0.0249373 3.04559e-16)
(-0.964595 0.29286 -3.01311e-19)
(-1.13602 0.559803 -1.70526e-16)
(-1.28081 0.810314 1.37477e-16)
(-1.3905 1.02118 1.1775e-16)
(-1.45665 1.15889 -2.13244e-16)
(-1.4752 1.18896 2.03988e-16)
(-1.45245 1.14357 -2.05666e-16)
(-1.33691 0.95165 0)
(-1.12051 0.58561 -2.75194e-16)
(-0.836661 0.176499 8.25816e-16)
(-0.673607 -0.017416 -6.1229e-16)
(-0.646893 -0.0807812 1.44418e-15)
(-0.604581 -0.219968 -1.47228e-15)
(-0.565956 -0.38982 0)
(-0.553843 -0.539851 0)
(-0.54924 -0.671179 1.30395e-15)
(-0.538666 -0.782152 2.15316e-19)
(-0.510978 -0.870426 -1.25689e-15)
(-0.494207 -0.922024 0)
(-0.494294 -0.956012 0)
(-0.315219 -0.810131 -1.42946e-15)
(-0.199417 -0.457544 0)
(-0.4341 -0.209675 0)
(-0.616322 0.0203809 0)
(-0.826895 0.263037 0)
(-1.02258 0.513986 0)
(-1.19733 0.756368 0)
(-1.34272 0.970782 0)
(-1.44825 1.12985 0)
(-1.49506 1.19278 2.034e-16)
(-1.49533 1.16258 -2.01746e-16)
(-1.3962 0.995475 0)
(-1.18137 0.640502 0)
(-0.874898 0.187041 0)
(-0.687749 -0.0684949 0)
(-0.682805 -0.101165 0)
(-0.64298 -0.193638 0)
(-0.594865 -0.34584 -1.45095e-15)
(-0.570496 -0.496867 2.787e-15)
(-0.561939 -0.634723 -2.67441e-15)
(-0.551287 -0.759115 1.29535e-15)
(-0.535719 -0.85886 1.28195e-15)
(-0.501501 -0.932687 -1.27833e-15)
(-0.491076 -0.963474 -1.28049e-15)
(-0.471851 -0.972899 1.26173e-15)
(-0.27813 -0.827685 -1.43009e-15)
(-0.190767 -0.22752 0)
(-0.444873 0.0373919 0)
(-0.635064 0.270186 1.56287e-16)
(-0.849893 0.504958 -1.05712e-16)
(-1.05102 0.737107 0)
(-1.22822 0.949584 1.3056e-16)
(-1.36956 1.11865 -2.26279e-16)
(-1.45413 1.20823 1.03663e-16)
(-1.47524 1.19946 2.01269e-16)
(-1.41954 1.05416 -2.10784e-16)
(-1.21736 0.712533 -2.49416e-16)
(-0.910853 0.235636 7.26025e-16)
(-0.71597 -0.0827768 -5.76895e-16)
(-0.716825 -0.113726 -6.70843e-16)
(-0.684847 -0.178008 -6.92913e-16)
(-0.637441 -0.30061 1.42635e-15)
(-0.599486 -0.441088 0)
(-0.581894 -0.578597 1.34468e-15)
(-0.570375 -0.713697 -1.28417e-15)
(-0.555186 -0.835266 0)
(-0.536692 -0.929499 1.23921e-15)
(-0.503964 -0.994391 -2.45129e-15)
(-0.492949 -1.00412 1.21515e-15)
(-0.433446 -1.00069 1.22423e-15)
(-0.207411 -0.832021 -2.92205e-15)
(-0.160178 0.00147734 2.12758e-16)
(-0.405429 0.275585 1.02029e-16)
(-0.611343 0.519394 -1.24473e-16)
(-0.839963 0.74961 1.78552e-16)
(-1.05016 0.959993 -2.81988e-16)
(-1.22807 1.1323 1.19263e-16)
(-1.35699 1.2375 0)
(-1.42172 1.24465 2.02746e-16)
(-1.3992 1.13641 -2.07925e-16)
(-1.23861 0.815654 -2.40269e-16)
(-0.950238 0.332981 3.38523e-16)
(-0.762921 -0.0396963 0)
(-0.764294 -0.0914272 6.4868e-16)
(-0.73201 -0.161872 -6.4281e-16)
(-0.684564 -0.259841 1.33611e-15)
(-0.63755 -0.37564 4.41352e-19)
(-0.604995 -0.502858 -2.65297e-15)
(-0.585598 -0.63833 1.2599e-15)
(-0.569022 -0.771736 -1.20541e-15)
(-0.549258 -0.890107 -7.12105e-19)
(-0.524312 -0.976936 2.32224e-15)
(-0.482891 -1.02617 -1.16905e-15)
(-0.483924 -1.01052 0)
(-0.349858 -0.988044 0)
(-0.0764289 -0.766654 0)
(-0.0867998 0.236615 0)
(-0.337179 0.526316 0)
(-0.573186 0.782767 0)
(-0.816362 1.00288 0)
(-1.03111 1.18022 0)
(-1.2032 1.29468 0)
(-1.3177 1.32185 -1.0285e-16)
(-1.34165 1.25394 1.03038e-16)
(-1.23185 0.959668 2.31238e-16)
(-0.989845 0.487777 -3.11876e-16)
(-0.80869 0.0716735 -5.18439e-16)
(-0.827599 -0.0453339 6.41412e-16)
(-0.7966 -0.136292 0)
(-0.7384 -0.236584 -6.05327e-16)
(-0.681538 -0.327044 6.2418e-16)
(-0.628606 -0.429536 0)
(-0.585404 -0.551489 0)
(-0.552666 -0.684481 1.18627e-15)
(-0.52217 -0.812933 -2.25524e-15)
(-0.489999 -0.922296 1.09255e-15)
(-0.450069 -0.993921 1.10282e-15)
(-0.398658 -1.00984 -2.25496e-15)
(-0.388348 -0.960927 1.19057e-15)
(-0.197685 -0.857393 0)
(0.138483 -0.522811 -1.67885e-15)
(-0.0478649 0.496525 0)
(-0.303914 0.807829 0)
(-0.559228 1.05728 8.33951e-17)
(-0.801662 1.24688 -6.6787e-17)
(-1.00652 1.37164 0)
(-1.16099 1.4186 1.04895e-16)
(-1.23619 1.38963 -2.05353e-16)
(-1.18779 1.1305 1.11657e-16)
(-1.00715 0.688927 2.85436e-16)
(-0.842343 0.237837 -4.43432e-16)
(-0.873518 0.0481405 0)
(-0.863643 -0.0820912 6.0323e-16)
(-0.800249 -0.226837 -5.63781e-16)
(-0.732356 -0.323291 -5.66847e-16)
(-0.658387 -0.402467 -5.90916e-16)
(-0.581946 -0.496911 1.21508e-15)
(-0.507489 -0.612498 0)
(-0.444963 -0.73655 1.16527e-15)
(-0.393794 -0.855953 -1.12135e-15)
(-0.340864 -0.956959 0)
(-0.280928 -1.01893 0)
(-0.210693 -1.01596 0)
(-0.139418 -0.934633 0)
(0.0300795 -0.768088 1.15967e-15)
(0.403201 -0.422864 -3.44775e-15)
(-0.046383 0.784303 0)
(-0.315467 1.09594 0)
(-0.560785 1.31982 0)
(-0.785389 1.47137 0)
(-0.966512 1.55151 0)
(-1.08672 1.55018 0)
(-1.10292 1.35556 0)
(-0.983963 0.962357 0)
(-0.819319 0.471129 0)
(-0.829788 0.177763 0)
(-0.890671 0.0301427 0)
(-0.851427 -0.177823 0)
(-0.790532 -0.340903 0)
(-0.704241 -0.447071 0)
(-0.596196 -0.525826 0)
(-0.483175 -0.610526 0)
(-0.371616 -0.708349 0)
(-0.281862 -0.810182 0)
(-0.212121 -0.919714 0)
(-0.140468 -1.0244 0)
(-0.0594483 -1.09541 0)
(0.0323928 -1.1062 0)
(0.147902 -1.04538 0)
(0.298298 -0.906128 0)
(0.588804 -0.683433 0)
(-0.0626266 1.0856 0)
(-0.342044 1.36426 0)
(-0.562796 1.55169 0)
(-0.754778 1.65958 0)
(-0.895736 1.68117 0)
(-0.960723 1.57473 0)
(-0.912573 1.27459 0)
(-0.772103 0.802135 0)
(-0.714597 0.400532 0)
(-0.825186 0.226606 0)
(-0.863337 0.0264012 0)
(-0.83963 -0.217852 0)
(-0.775912 -0.422778 0)
(-0.671089 -0.570809 0)
(-0.521833 -0.671541 0)
(-0.367069 -0.750742 0)
(-0.232037 -0.815242 0)
(-0.126847 -0.873629 0)
(-0.0431555 -0.959344 0)
(0.0390167 -1.06671 0)
(0.130692 -1.15551 0)
(0.236466 -1.18955 0)
(0.360931 -1.15557 0)
(0.500439 -1.06389 0)
(0.688136 -0.943412 0)
(-0.0783783 1.35552 0)
(-0.341804 1.60274 0)
(-0.532236 1.74229 0)
(-0.680571 1.79785 0)
(-0.771366 1.75472 0)
(-0.782293 1.55825 0)
(-0.695512 1.16894 0)
(-0.583564 0.683804 0)
(-0.628068 0.387008 0)
(-0.755321 0.240099 0)
(-0.781758 0.0241043 0)
(-0.774548 -0.245109 0)
(-0.715031 -0.501936 0)
(-0.605812 -0.712932 0)
(-0.441634 -0.862527 0)
(-0.271249 -0.946619 0)
(-0.119981 -0.977808 0)
(0.00314388 -0.992477 0)
(0.107305 -1.05143 0)
(0.207026 -1.15038 0)
(0.312585 -1.24578 0)
(0.429467 -1.29595 0)
(0.560254 -1.28366 0)
(0.709166 -1.21848 0)
(0.884516 -1.11133 0)
(-0.079152 1.58619 0)
(-0.30272 1.80279 0)
(-0.456755 1.88644 0)
(-0.556326 1.88551 0)
(-0.600554 1.77793 0)
(-0.574972 1.5138 0)
(-0.481771 1.07196 0)
(-0.417241 0.612695 0)
(-0.515499 0.393481 0)
(-0.632143 0.264479 0)
(-0.650387 0.0647004 0)
(-0.65272 -0.203882 0)
(-0.611982 -0.514205 0)
(-0.517913 -0.815228 0)
(-0.363302 -1.03594 0)
(-0.193859 -1.13824 0)
(-0.0308391 -1.15053 0)
(0.11409 -1.13893 0)
(0.241715 -1.17258 0)
(0.361121 -1.25805 0)
(0.480687 -1.35429 0)
(0.605825 -1.4145 0)
(0.739193 -1.41745 0)
(0.882179 -1.36826 0)
(1.03806 -1.28542 0)
(-0.0594217 1.7612 0)
(-0.233989 1.9513 0)
(-0.346708 1.98294 0)
(-0.399838 1.9273 0)
(-0.409399 1.76953 0)
(-0.367381 1.4659 0)
(-0.288715 1.0101 0)
(-0.265085 0.582084 0)
(-0.385419 0.410648 0)
(-0.487841 0.320126 0)
(-0.490502 0.174754 0)
(-0.48948 -0.0526106 0)
(-0.479184 -0.427436 0)
(-0.406967 -0.851093 0)
(-0.27248 -1.1788 0)
(-0.106425 -1.31919 0)
(0.0645533 -1.33015 0)
(0.224846 -1.30504 0)
(0.371451 -1.31927 0)
(0.508597 -1.38942 0)
(0.640731 -1.47954 0)
(0.771169 -1.54173 0)
(0.902167 -1.55138 0)
(1.03583 -1.51083 0)
(1.17375 -1.43672 0)
(-0.0297081 1.87342 0)
(-0.149785 2.06206 0)
(-0.220713 2.03608 0)
(-0.236025 1.93707 0)
(-0.222856 1.74836 0)
(-0.176809 1.43672 0)
(-0.117255 0.999796 0)
(-0.108817 0.595738 0)
(-0.227646 0.433512 0)
(-0.304867 0.366694 0)
(-0.324965 0.347161 0)
(-0.279626 0.235848 0)
(-0.328197 -0.210655 0)
(-0.263613 -0.807853 0)
(-0.153573 -1.29127 0)
(0.00284885 -1.48904 0)
(0.175089 -1.50994 0)
(0.343543 -1.48115 0)
(0.503776 -1.4812 0)
(0.654818 -1.53515 0)
(0.796351 -1.61368 0)
(0.929099 -1.67034 0)
(1.0553 -1.67883 0)
(1.17761 -1.63952 0)
(1.29834 -1.56735 0)
(-0.00164519 1.92828 0)
(-0.0619624 2.13872 0)
(-0.0943093 2.05645 0)
(-0.0819128 1.92712 0)
(-0.0533739 1.72285 0)
(-0.00557403 1.41981 0)
(0.0403469 1.02034 0)
(0.0447857 0.641563 0)
(-0.0522556 0.436493 0)
(-0.109418 0.335696 0)
(-0.155863 0.323991 0)
(-0.150544 0.350645 0)
(-0.162566 0.0876526 0)
(-0.0988381 -0.695058 0)
(-0.00931694 -1.36713 0)
(0.132021 -1.6427 0)
(0.299059 -1.68836 0)
(0.470571 -1.66247 0)
(0.638881 -1.65279 0)
(0.798816 -1.69078 0)
(0.94587 -1.75316 0)
(1.07825 -1.79716 0)
(1.19763 -1.7974 0)
(1.30806 -1.75357 0)
(1.41357 -1.67905 0)
(0.0276618 1.9272 0)
(0.0243331 2.1393 0)
(0.0251843 2.0514 0)
(0.0559277 1.89764 0)
(0.0953635 1.68582 0)
(0.144805 1.39887 0)
(0.183075 1.04404 0)
(0.185916 0.70418 0)
(0.129137 0.475383 0)
(0.101641 0.328564 0)
(0.0902514 0.268184 0)
(0.0391046 0.312216 0)
(0.0283272 0.246599 0)
(0.0683476 -0.551638 0)
(0.147161 -1.40698 0)
(0.274034 -1.77678 0)
(0.433372 -1.85985 0)
(0.603624 -1.84372 0)
(0.774455 -1.82912 0)
(0.937811 -1.85199 0)
(1.08572 -1.89463 0)
(1.21408 -1.92009 0)
(1.32468 -1.90637 0)
(1.42288 -1.85382 0)
(1.51448 -1.77501 0)
(0.0556358 1.87088 0)
(0.105924 2.11793 0)
(0.137913 2.0265 0)
(0.182062 1.85491 0)
(0.228739 1.63775 0)
(0.278138 1.36717 0)
(0.314066 1.05214 0)
(0.320422 0.749889 0)
(0.293274 0.519994 0)
(0.290647 0.353258 0)
(0.316586 0.249124 0)
(0.262348 0.291441 0)
(0.233438 0.289928 0)
(0.235779 -0.437067 0)
(0.310646 -1.42068 0)
(0.426924 -1.8955 0)
(0.577283 -2.02179 0)
(0.742285 -2.02062 0)
(0.910483 -2.00441 0)
(1.07126 -2.01254 0)
(1.21403 -2.03277 0)
(1.33367 -2.03559 0)
(1.4326 -2.00433 0)
(1.5179 -1.94131 0)
(1.59714 -1.85808 0)
(0.0813623 1.76138 0)
(0.182603 2.05034 0)
(0.249593 1.98066 0)
(0.306192 1.80282 0)
(0.356759 1.58317 0)
(0.405735 1.32608 0)
(0.441673 1.04165 0)
(0.454865 0.768008 0)
(0.443587 0.544882 0)
(0.45424 0.370798 0)
(0.494708 0.24572 0)
(0.450977 0.272044 0)
(0.413603 0.285765 0)
(0.409535 -0.354155 0)
(0.482683 -1.42606 0)
(0.591688 -2.00018 0)
(0.732262 -2.17237 0)
(0.888273 -2.18829 0)
(1.04784 -2.17142 0)
(1.19866 -2.16432 0)
(1.32919 -2.16045 0)
(1.43483 -2.13883 0)
(1.51961 -2.08939 0)
(1.59229 -2.01651 0)
(1.66141 -1.93089 0)
(0.105372 1.60141 0)
(0.253783 1.93938 0)
(0.356848 1.90988 0)
(0.430666 1.74388 0)
(0.486689 1.52795 0)
(0.534976 1.28175 0)
(0.5725 1.0194 0)
(0.590894 0.766419 0)
(0.591065 0.548155 0)
(0.615507 0.360033 0)
(0.651667 0.217189 0)
(0.614853 0.220305 0)
(0.57407 0.249725 0)
(0.586052 -0.311114 0)
(0.662865 -1.43541 0)
(0.7683 -2.09462 0)
(0.897945 -2.30989 0)
(1.04002 -2.34179 0)
(1.18384 -2.32318 0)
(1.31681 -2.29976 0)
(1.42832 -2.27135 0)
(1.51595 -2.22617 0)
(1.58586 -2.16076 0)
(1.64773 -2.0814 0)
(1.71023 -1.99688 0)
(0.128314 1.39235 0)
(0.317753 1.78893 0)
(0.455115 1.81163 0)
(0.548907 1.6743 0)
(0.613933 1.47204 0)
(0.665329 1.23922 0)
(0.704094 0.994698 0)
(0.726632 0.756562 0)
(0.739142 0.537467 0)
(0.770461 0.330045 0)
(0.803697 0.171067 0)
(0.770912 0.163286 0)
(0.733862 0.178018 0)
(0.762649 -0.311064 0)
(0.848875 -1.46181 0)
(0.953258 -2.18601 0)
(1.06973 -2.43157 0)
(1.19227 -2.47536 0)
(1.31307 -2.45282 0)
(1.42119 -2.4123 0)
(1.50893 -2.36102 0)
(1.57716 -2.29627 0)
(1.63373 -2.22021 0)
(1.68846 -2.13946 0)
(1.74857 -2.06031 0)
(0.150165 1.13534 0)
(0.372941 1.60346 0)
(0.538151 1.68563 0)
(0.652335 1.58946 0)
(0.72982 1.41249 0)
(0.785699 1.19912 0)
(0.826582 0.971027 0)
(0.854045 0.74152 0)
(0.874954 0.518597 0)
(0.91127 0.30211 0)
(0.944209 0.135261 0)
(0.916838 0.10913 0)
(0.888788 0.0981063 0)
(0.933283 -0.352588 0)
(1.03473 -1.5091 0)
(1.14 -2.26834 0)
(1.24072 -2.53172 0)
(1.33812 -2.58317 0)
(1.42962 -2.55417 0)
(1.50834 -2.49747 0)
(1.57094 -2.42798 0)
(1.62153 -2.35079 0)
(1.66877 -2.27134 0)
(1.7205 -2.1951 0)
(1.78142 -2.12489 0)
(0.161141 0.828143 0)
(0.412669 1.39803 0)
(0.604124 1.54065 0)
(0.735487 1.49023 0)
(0.823514 1.34536 0)
(0.884665 1.1545 0)
(0.928566 0.940334 0)
(0.960003 0.715873 0)
(0.986561 0.492003 0)
(1.02818 0.277607 0)
(1.0687 0.102781 0)
(1.04764 0.0589268 0)
(1.02884 0.0409089 0)
(1.0908 -0.436137 0)
(1.21297 -1.58162 0)
(1.32064 -2.34825 0)
(1.40264 -2.6137 0)
(1.47006 -2.66136 0)
(1.52866 -2.62385 0)
(1.57746 -2.55456 0)
(1.61763 -2.47456 0)
(1.65534 -2.39397 0)
(1.6977 -2.31875 0)
(1.74969 -2.25159 0)
(1.81292 -2.19226 0)
(0.145075 0.488936 0)
(0.42426 1.13477 0)
(0.644339 1.3722 0)
(0.792919 1.37787 0)
(0.889305 1.26705 0)
(0.954074 1.09657 0)
(1.00015 0.894199 0)
(1.03259 0.677481 0)
(1.06419 0.458802 0)
(1.11858 0.252192 0)
(1.16634 0.0721274 0)
(1.15412 0.0147956 0)
(1.14743 0.0120744 0)
(1.23082 -0.554232 0)
(1.37694 -1.67971 0)
(1.48662 -2.42466 0)
(1.54627 -2.67119 0)
(1.58131 -2.70588 0)
(1.60808 -2.66189 0)
(1.63114 -2.58705 0)
(1.65488 -2.50615 0)
(1.68518 -2.43103 0)
(1.7264 -2.36576 0)
(1.77959 -2.31007 0)
(1.84392 -2.26158 0)
(0.100194 0.213991 0)
(0.394698 0.824912 0)
(0.646938 1.16909 0)
(0.816484 1.24774 0)
(0.921553 1.1745 0)
(0.990385 1.02476 0)
(1.03756 0.837029 0)
(1.06914 0.633659 0)
(1.10938 0.425713 0)
(1.172 0.225552 0)
(1.22249 0.0456435 0)
(1.22865 -0.0232453 0)
(1.23431 -0.0305862 0)
(1.34673 -0.706448 0)
(1.52195 -1.80417 0)
(1.62913 -2.4944 0)
(1.66352 -2.69413 0)
(1.66881 -2.71743 0)
(1.66968 -2.67372 0)
(1.67429 -2.60185 0)
(1.68832 -2.52907 0)
(1.71556 -2.46583 0)
(1.75642 -2.4133 0)
(1.8095 -2.36911 0)
(1.87272 -2.33036 0)
(0.0516431 0.0916825 0)
(0.323496 0.506174 0)
(0.604276 0.926702 0)
(0.799772 1.09385 0)
(0.91808 1.07018 0)
(0.992477 0.947325 0)
(1.04112 0.779933 0)
(1.07386 0.592587 0)
(1.11713 0.393802 0)
(1.1853 0.19212 0)
(1.2331 0.0138642 0)
(1.25521 -0.0726025 0)
(1.27304 -0.110508 0)
(1.43793 -0.899707 0)
(1.64518 -1.9524 0)
(1.74087 -2.54976 0)
(1.75028 -2.69863 0)
(1.7334 -2.71162 0)
(1.71679 -2.66971 0)
(1.71062 -2.60672 0)
(1.72011 -2.54805 0)
(1.74574 -2.49958 0)
(1.78535 -2.45991 0)
(1.83591 -2.42611 0)
(1.89538 -2.39597 0)
(0.0203691 0.0682463 0)
(0.200577 0.221493 0)
(0.510911 0.646703 0)
(0.739392 0.913432 0)
(0.876809 0.958042 0)
(0.960013 0.872295 0)
(1.01111 0.72845 0)
(1.04531 0.554502 0)
(1.08832 0.356927 0)
(1.14516 0.145281 0)
(1.20007 -0.0503667 0)
(1.23162 -0.170181 0)
(1.26775 -0.225381 0)
(1.51888 -1.1405 0)
(1.74593 -2.11181 0)
(1.81877 -2.58417 0)
(1.80726 -2.68876 0)
(1.77644 -2.69312 0)
(1.75045 -2.65422 0)
(1.7399 -2.60628 0)
(1.7477 -2.56482 0)
(1.77167 -2.53129 0)
(1.80806 -2.50335 0)
(1.85434 -2.47886 0)
(1.90912 -2.45684 0)
(0.0219975 0.00575439 0)
(0.0478346 -0.00223381 0)
(0.357225 0.340562 0)
(0.629698 0.70493 0)
(0.795189 0.838046 0)
(0.890642 0.800736 0)
(0.945467 0.679799 0)
(0.980604 0.513651 0)
(1.01584 0.311905 0)
(1.06177 0.0850897 0)
(1.11685 -0.112855 0)
(1.13913 -0.190669 0)
(1.25617 -0.453218 0)
(1.60638 -1.43562 0)
(1.82053 -2.26375 0)
(1.86202 -2.59612 0)
(1.8359 -2.66336 0)
(1.7982 -2.66132 0)
(1.76976 -2.63374 0)
(1.75925 -2.60425 0)
(1.76662 -2.57991 0)
(1.78819 -2.55989 0)
(1.82083 -2.5424 0)
(1.86248 -2.52667 0)
(1.91245 -2.51287 0)
(0.0390158 -0.0690931 0)
(0.0537052 -0.130867 0)
(0.167959 0.0659238 0)
(0.471452 0.474944 0)
(0.672709 0.706551 0)
(0.781848 0.727255 0)
(0.841074 0.629005 0)
(0.876052 0.4675 0)
(0.902109 0.259858 0)
(0.942077 0.0162758 0)
(0.976879 -0.169177 0)
(0.996693 -0.241512 0)
(1.29248 -0.796689 0)
(1.70019 -1.75285 0)
(1.85734 -2.38111 0)
(1.87181 -2.58388 0)
(1.83884 -2.62905 0)
(1.79978 -2.62767 0)
(1.77402 -2.61484 0)
(1.76602 -2.60313 0)
(1.7735 -2.59375 0)
(1.79304 -2.58533 0)
(1.82217 -2.57734 0)
(1.86004 -2.57023 0)
(1.90636 -2.56482 0)
(0.0473227 -0.145508 0)
(0.0791593 -0.21256 0)
(0.0561701 -0.141266 0)
(0.29065 0.244524 0)
(0.515639 0.565934 0)
(0.6366 0.64834 0)
(0.698461 0.57425 0)
(0.732176 0.417965 0)
(0.753659 0.20123 0)
(0.780828 -0.055582 0)
(0.773547 -0.208254 0)
(0.931849 -0.444829 0)
(1.4079 -1.24824 0)
(1.77988 -2.0409 0)
(1.86878 -2.44747 0)
(1.85929 -2.5606 0)
(1.81935 -2.59058 0)
(1.78352 -2.59701 0)
(1.76372 -2.60037 0)
(1.75958 -2.6041 0)
(1.76796 -2.60701 0)
(1.78625 -2.60856 0)
(1.81335 -2.6094 0)
(1.84862 -2.61069 0)
(1.89191 -2.61355 0)
(0.0425284 -0.226165 0)
(0.104208 -0.270662 0)
(0.0736022 -0.193089 0)
(0.129868 0.072191 0)
(0.340356 0.435024 0)
(0.463009 0.569621 0)
(0.522471 0.518576 0)
(0.553457 0.367625 0)
(0.570526 0.140878 0)
(0.545159 -0.0935138 0)
(0.618389 -0.314843 0)
(1.04345 -0.91509 0)
(1.56148 -1.69911 0)
(1.81764 -2.24406 0)
(1.84212 -2.46314 0)
(1.81599 -2.52926 0)
(1.7783 -2.55524 0)
(1.75222 -2.57398 0)
(1.74088 -2.59211 0)
(1.74157 -2.60807 0)
(1.75172 -2.62078 0)
(1.77008 -2.63088 0)
(1.79603 -2.63978 0)
(1.82955 -2.64894 0)
(1.8705 -2.65948 0)
(0.029414 -0.307459 0)
(0.0940162 -0.315319 0)
(0.084144 -0.193574 0)
(0.0161689 -0.00164541 0)
(0.16345 0.34601 0)
(0.270943 0.502705 0)
(0.319617 0.467234 0)
(0.349143 0.319631 0)
(0.322366 0.0961566 0)
(0.346249 -0.18291 0)
(0.704728 -0.734675 0)
(1.26749 -1.45687 0)
(1.66515 -2.04157 0)
(1.77252 -2.34543 0)
(1.77735 -2.45267 0)
(1.74854 -2.49684 0)
(1.72367 -2.52944 0)
(1.71122 -2.56146 0)
(1.70913 -2.59094 0)
(1.71485 -2.61569 0)
(1.72732 -2.63592 0)
(1.74628 -2.65318 0)
(1.77188 -2.66918 0)
(1.80397 -2.68532 0)
(1.84249 -2.70273 0)
(0.0177776 -0.375635 0)
(0.0625997 -0.337302 0)
(0.0580038 -0.167065 0)
(-0.0742786 0.0182439 0)
(-0.00552777 0.319401 0)
(0.0654296 0.461983 0)
(0.0981527 0.426166 0)
(0.128546 0.28443 0)
(0.0449179 0.109407 0)
(0.408963 -0.556898 0)
(0.979356 -1.29599 0)
(1.44494 -1.88915 0)
(1.65394 -2.23197 0)
(1.69573 -2.37489 0)
(1.68697 -2.43426 0)
(1.67194 -2.47658 0)
(1.66526 -2.51933 0)
(1.66601 -2.56055 0)
(1.67178 -2.59663 0)
(1.68185 -2.62692 0)
(1.69655 -2.65271 0)
(1.71643 -2.6758 0)
(1.74163 -2.69778 0)
(1.77238 -2.71992 0)
(1.80869 -2.74324 0)
(-0.00267059 -0.416935 0)
(0.00738515 -0.31555 0)
(-0.0256294 -0.103497 0)
(-0.1812 0.115731 0)
(-0.165734 0.346588 0)
(-0.144383 0.447255 0)
(-0.13137 0.396622 0)
(-0.178707 0.251474 0)
(0.112766 -0.229936 0)
(0.714325 -1.10148 0)
(1.19734 -1.7655 0)
(1.48889 -2.14427 0)
(1.56941 -2.31115 0)
(1.59165 -2.38171 0)
(1.59593 -2.4284 0)
(1.60108 -2.47588 0)
(1.60952 -2.52419 0)
(1.6195 -2.56872 0)
(1.63072 -2.60752 0)
(1.64411 -2.6411 0)
(1.66074 -2.67098 0)
(1.68129 -2.69871 0)
(1.70623 -2.7256 0)
(1.73563 -2.75271 0)
(1.76957 -2.78107 0)
(-0.032815 -0.417845 0)
(-0.0665367 -0.239889 0)
(-0.158587 0.00890711 0)
(-0.281761 0.21595 0)
(-0.314341 0.3821 0)
(-0.330934 0.46537 0)
(-0.316265 0.471918 0)
(-0.243423 0.241323 0)
(0.421247 -0.735264 0)
(0.951228 -1.58782 0)
(1.27493 -2.07032 0)
(1.42077 -2.2752 0)
(1.47831 -2.35264 0)
(1.50376 -2.39705 0)
(1.52254 -2.44164 0)
(1.54055 -2.49019 0)
(1.55713 -2.53821 0)
(1.57218 -2.58237 0)
(1.58691 -2.6219 0)
(1.60278 -2.65753 0)
(1.62091 -2.69043 0)
(1.64203 -2.72176 0)
(1.66642 -2.75255 0)
(1.69444 -2.78375 0)
(1.72622 -2.81623 0)
(-0.0584699 -0.352917 0)
(-0.138387 -0.148944 0)
(-0.244475 0.0875441 0)
(-0.359588 0.285514 0)
(-0.419555 0.437719 0)
(-0.441805 0.505603 0)
(-0.427833 0.367219 0)
(0.134471 -0.283666 0)
(0.70333 -1.25764 0)
(1.08194 -1.94471 0)
(1.27762 -2.24946 0)