/*--------------------------------*- C++ -*----------------------------------*\
  =========                 |
  \\      /  F ield         | OpenFOAM: The Open Source CFD Toolbox
   \\    /   O peration     | Website:  https://openfoam.org
    \\  /    A nd           | Version:  13
     \\/     M anipulation  |
\*---------------------------------------------------------------------------*/
FoamFile
{
    format      ascii;
    class       volVectorField;
    location    "19";
    object      U;
}
// * * * * * * * * * * * * * * * * * * * * * * * * * * * * * * * * * * * * * //

dimensions      [0 1 -1 0 0 0 0];

internalField   nonuniform List<vector> 
6440
(
(-4.17486e-08 9.2606e-08 0)
(-9.48972e-08 2.33611e-07 0)
(-2.19618e-07 2.71149e-07 -2.11002e-20)
(-2.9503e-07 2.89389e-07 2.10298e-20)
(-3.23916e-07 3.13999e-07 0)
(-2.95732e-07 3.37222e-07 -4.16348e-20)
(-1.94671e-07 3.49236e-07 4.13615e-20)
(-1.53965e-08 3.39567e-07 0)
(2.37087e-07 3.02417e-07 8.13191e-20)
(5.64062e-07 2.33294e-07 -8.05387e-20)
(9.64552e-07 1.27093e-07 -7.95934e-20)
(1.42278e-06 -1.84353e-08 6.54173e-23)
(1.91259e-06 -2.0381e-07 7.64883e-23)
(2.40339e-06 -4.24454e-07 7.65417e-20)
(2.86464e-06 -6.71449e-07 7.52894e-20)
(3.26783e-06 -9.30896e-07 -7.41745e-20)
(3.58126e-06 -1.18992e-06 0)
(3.77804e-06 -1.43264e-06 1.43084e-19)
(3.84489e-06 -1.64478e-06 -1.90774e-22)
(3.78109e-06 -1.80654e-06 -1.38008e-19)
(3.58007e-06 -1.87137e-06 1.35157e-19)
(3.2056e-06 -1.74529e-06 -2.65104e-19)
(3.05165e-06 -1.53109e-06 1.2993e-19)
(2.30093e-06 -5.62404e-07 -1.27105e-19)
(6.6516e-07 5.8415e-07 4.10596e-23)
(-8.20129e-08 2.81261e-07 0)
(-1.98931e-07 6.0722e-07 0)
(-3.82852e-07 6.34495e-07 -2.26601e-20)
(-5.20448e-07 6.1997e-07 2.25844e-20)
(-6.42024e-07 6.12749e-07 0)
(-7.32313e-07 5.9283e-07 -4.4727e-20)
(-7.80791e-07 5.496e-07 4.44329e-20)
(-7.75426e-07 4.74677e-07 0)
(-7.05846e-07 3.65586e-07 0)
(-5.63582e-07 2.23617e-07 0)
(-3.43307e-07 4.87368e-08 0)
(-5.03373e-08 -1.54638e-07 -8.45692e-20)
(3.02951e-07 -3.79748e-07 8.35224e-20)
(6.99306e-07 -6.15066e-07 0)
(1.12015e-06 -8.47821e-07 8.10348e-20)
(1.52954e-06 -1.05361e-06 -7.98332e-20)
(1.88164e-06 -1.2019e-06 0)
(2.145e-06 -1.28522e-06 0)
(2.29622e-06 -1.3126e-06 1.51071e-19)
(2.32959e-06 -1.29889e-06 -1.48417e-19)
(2.24029e-06 -1.24645e-06 1.45171e-19)
(1.92825e-06 -1.05812e-06 -1.42456e-19)
(1.99248e-06 -1.03627e-06 -1.39187e-19)
(1.97626e-06 -5.7777e-07 2.28065e-22)
(1.52836e-07 1.18014e-06 9.78404e-20)
(-1.23123e-07 6.1439e-07 0)
(-3.09505e-07 1.0617e-06 0)
(-5.42498e-07 1.01996e-06 -2.2987e-20)
(-7.14128e-07 9.65569e-07 2.2914e-20)
(-8.80695e-07 9.33254e-07 0)
(-1.01147e-06 8.69914e-07 -4.54183e-20)
(-1.09734e-06 7.60675e-07 9.02764e-20)
(-1.12199e-06 6.03205e-07 -4.48151e-20)
(-1.06927e-06 3.9916e-07 8.89139e-20)
(-9.26812e-07 1.53031e-07 -8.81e-20)
(-6.85389e-07 -1.28434e-07 -8.71992e-20)
(-3.45489e-07 -4.35808e-07 2.62534e-23)
(8.63771e-08 -7.56167e-07 8.51996e-20)
(5.98053e-07 -1.06823e-06 8.40209e-20)
(1.17544e-06 -1.35482e-06 -8.02385e-23)
(1.80672e-06 -1.61019e-06 -8.16396e-20)
(2.42667e-06 -1.80687e-06 0)
(2.93939e-06 -1.92668e-06 1.5763e-19)
(3.30208e-06 -1.99554e-06 -1.55073e-19)
(3.50692e-06 -2.05615e-06 0)
(3.52277e-06 -2.14575e-06 1.48819e-19)
(3.14479e-06 -2.17936e-06 -2.91935e-19)
(2.78906e-06 -2.47879e-06 1.43096e-19)
(2.43032e-06 -2.67351e-06 -1.39766e-19)
(-5.6853e-08 -2.6001e-07 1.01491e-19)
(-1.57119e-07 1.0734e-06 0)
(-4.05678e-07 1.58836e-06 0)
(-6.75551e-07 1.44774e-06 -2.32074e-20)
(-8.72599e-07 1.35963e-06 2.31374e-20)
(-1.07545e-06 1.31781e-06 0)
(-1.24713e-06 1.23674e-06 -4.58962e-20)
(-1.36607e-06 1.09504e-06 9.12609e-20)
(-1.41419e-06 8.92762e-07 -4.53232e-20)
(-1.37964e-06 6.42648e-07 0)
(-1.24793e-06 3.60848e-07 0)
(-1.00709e-06 6.63739e-08 0)
(-6.51036e-07 -2.22326e-07 -8.74349e-20)
(-1.59357e-07 -4.91011e-07 8.64507e-20)
(4.75496e-07 -7.33498e-07 8.53335e-20)
(1.22906e-06 -9.42765e-07 -8.42408e-20)
(2.06706e-06 -1.12025e-06 0)
(2.90665e-06 -1.2578e-06 1.63261e-19)
(3.63653e-06 -1.37088e-06 -1.6083e-19)
(4.20703e-06 -1.51353e-06 0)
(4.59095e-06 -1.74183e-06 0)
(4.72216e-06 -2.08963e-06 0)
(4.33806e-06 -2.45576e-06 0)
(3.66606e-06 -3.07741e-06 0)
(3.07737e-06 -3.8091e-06 -1.42782e-19)
(-1.45646e-08 -1.08122e-06 1.08267e-22)
(-1.76249e-07 1.62081e-06 0)
(-4.78813e-07 2.16363e-06 0)
(-7.78604e-07 1.91698e-06 -2.33327e-20)
(-1.0114e-06 1.80177e-06 2.32658e-20)
(-1.25014e-06 1.74262e-06 0)
(-1.46028e-06 1.62834e-06 -4.61833e-20)
(-1.63314e-06 1.43963e-06 9.18644e-20)
(-1.74641e-06 1.18394e-06 -4.56411e-20)
(-1.77661e-06 8.86694e-07 0)
(-1.70272e-06 5.79565e-07 0)
(-1.50242e-06 2.91814e-07 0)
(-1.15024e-06 4.86175e-08 -8.82716e-20)
(-6.29953e-07 -1.31786e-07 8.7325e-20)
(5.70551e-08 -2.55581e-07 8.62706e-20)
(9.06688e-07 -3.47209e-07 -8.5217e-20)
(1.9098e-06 -4.33544e-07 0)
(2.94042e-06 -5.11485e-07 1.65403e-19)
(3.83133e-06 -6.00928e-07 -1.63048e-19)
(4.54709e-06 -7.63572e-07 0)
(5.07602e-06 -1.0989e-06 0)
(5.3377e-06 -1.6484e-06 0)
(5.04172e-06 -2.28566e-06 0)
(4.2862e-06 -3.14868e-06 0)
(3.65956e-06 -4.24862e-06 -1.45269e-19)
(1.06112e-07 -1.46382e-06 1.0779e-19)
(-1.83865e-07 2.21797e-06 0)
(-5.36833e-07 2.76592e-06 0)
(-8.65345e-07 2.43214e-06 -2.33742e-20)
(-1.14691e-06 2.30691e-06 2.33107e-20)
(-1.44062e-06 2.2345e-06 0)
(-1.70991e-06 2.07684e-06 -4.6303e-20)
(-1.94824e-06 1.8208e-06 9.21336e-20)
(-2.1319e-06 1.49112e-06 -4.57923e-20)
(-2.23417e-06 1.12883e-06 9.10353e-20)
(-2.23242e-06 7.81672e-07 -9.03175e-20)
(-2.09619e-06 4.90021e-07 0)
(-1.79024e-06 2.81517e-07 -8.87762e-20)
(-1.29708e-06 1.69577e-07 1.69167e-24)
(-6.15874e-07 1.43516e-07 1.73788e-19)
(2.76713e-07 1.57943e-07 -8.58702e-20)
(1.37752e-06 1.56158e-07 0)
(2.52729e-06 1.21176e-07 1.66929e-19)
(3.58988e-06 1.45992e-08 -2.8906e-22)
(4.502e-06 -1.98276e-07 -3.45072e-22)
(5.18391e-06 -5.95906e-07 -1.59306e-19)
(5.57708e-06 -1.25545e-06 0)
(5.41452e-06 -2.06288e-06 0)
(4.70201e-06 -3.07168e-06 0)
(4.1253e-06 -4.39347e-06 -1.47259e-19)
(2.26013e-07 -1.61261e-06 1.10427e-19)
(-1.84358e-07 2.83962e-06 0)
(-5.81538e-07 3.38329e-06 0)
(-9.34089e-07 2.99622e-06 -2.3343e-20)
(-1.2633e-06 2.88266e-06 2.32828e-20)
(-1.61047e-06 2.80548e-06 4.64482e-20)
(-1.93758e-06 2.60855e-06 -9.25265e-20)
(-2.23658e-06 2.28444e-06 9.21107e-20)
(-2.48479e-06 1.87254e-06 -4.57975e-20)
(-2.65541e-06 1.42999e-06 0)
(-2.72266e-06 1.02159e-06 9.04698e-20)
(-2.6549e-06 7.0288e-07 -8.97225e-20)
(-2.41134e-06 5.05055e-07 -8.89897e-20)
(-1.9682e-06 4.37692e-07 8.81244e-20)
(-1.3133e-06 4.88932e-07 8.72067e-20)
(-4.19918e-07 5.99712e-07 -8.62391e-20)
(7.09173e-07 6.81008e-07 0)
(1.93302e-06 6.85386e-07 1.67917e-19)
(3.14749e-06 5.78498e-07 -1.65736e-19)
(4.26634e-06 2.89651e-07 0)
(5.13369e-06 -1.90992e-07 1.60186e-19)
(5.67086e-06 -9.23028e-07 -1.57841e-19)
(5.64754e-06 -1.82735e-06 0)
(5.01384e-06 -2.90921e-06 0)
(4.51082e-06 -4.35974e-06 -1.48785e-19)
(3.27281e-07 -1.59185e-06 1.444e-22)
(-1.80484e-07 3.46605e-06 0)
(-6.10154e-07 4.00087e-06 0)
(-9.73746e-07 3.59459e-06 -2.32493e-20)
(-1.33346e-06 3.50973e-06 2.31924e-20)
(-1.71139e-06 3.43152e-06 0)
(-2.06995e-06 3.19337e-06 -4.61241e-20)
(-2.39994e-06 2.79471e-06 4.59006e-20)
(-2.68047e-06 2.28901e-06 0)
(-2.88483e-06 1.75083e-06 0)
(-2.98599e-06 1.26183e-06 0)
(-2.9565e-06 8.93302e-07 0)
(-2.76108e-06 6.86745e-07 -8.89484e-20)
(-2.36058e-06 6.45255e-07 8.81249e-20)
(-1.73854e-06 7.59827e-07 0)
(-8.8143e-07 9.65938e-07 0)
(2.15141e-07 1.1491e-06 0)
(1.4816e-06 1.20529e-06 0)
(2.80312e-06 1.10989e-06 0)
(4.07264e-06 7.87211e-07 1.63611e-19)
(5.13695e-06 2.28525e-07 -1.61403e-19)
(5.83741e-06 -5.72711e-07 0)
(5.93341e-06 -1.53068e-06 0)
(5.3441e-06 -2.63889e-06 0)
(4.88254e-06 -4.18854e-06 -1.49886e-19)
(4.21001e-07 -1.46624e-06 1.14722e-19)
(-1.73121e-07 4.07691e-06 0)
(-6.15691e-07 4.59351e-06 0)
(-9.64764e-07 4.19055e-06 -2.31022e-20)
(-1.3182e-06 4.13963e-06 2.30485e-20)
(-1.68153e-06 4.05645e-06 0)
(-2.01981e-06 3.76947e-06 -4.58631e-20)
(-2.32377e-06 3.2854e-06 9.13412e-20)
(-2.5745e-06 2.67187e-06 -4.54451e-20)
(-2.74792e-06 2.02161e-06 0)
(-2.81925e-06 1.43176e-06 0)
(-2.76837e-06 9.90934e-07 8.93558e-20)
(-2.57145e-06 7.56066e-07 -1.77312e-19)
(-2.17984e-06 7.3027e-07 8.79034e-20)
(-1.56894e-06 8.92203e-07 8.71349e-20)
(-7.50699e-07 1.19846e-06 -8.62566e-20)
(2.72291e-07 1.53026e-06 0)
(1.50344e-06 1.73864e-06 -1.68518e-19)
(2.88321e-06 1.70625e-06 1.66522e-19)
(4.27928e-06 1.37677e-06 0)
(5.48955e-06 7.89577e-07 0)
(6.31256e-06 -6.37137e-08 0)
(6.46958e-06 -1.068e-06 1.56109e-19)
(5.82321e-06 -2.1829e-06 -1.53876e-19)
(5.31084e-06 -3.86392e-06 -1.50608e-19)
(5.26825e-07 -1.27401e-06 1.16415e-19)
(-1.62112e-07 4.6477e-06 0)
(-5.8903e-07 5.12084e-06 0)
(-8.83431e-07 4.72165e-06 0)
(-1.17321e-06 4.69056e-06 0)
(-1.4528e-06 4.58464e-06 0)
(-1.69382e-06 4.23266e-06 0)
(-1.88823e-06 3.64892e-06 0)
(-2.01915e-06 2.91344e-06 0)
(-2.06845e-06 2.13424e-06 -8.9895e-20)
(-2.0157e-06 1.42468e-06 8.9315e-20)
(-1.84795e-06 8.89246e-07 0)
(-1.56085e-06 6.05874e-07 0)
(-1.11874e-06 5.95298e-07 0)
(-4.7612e-07 8.08742e-07 0)
(3.51676e-07 1.22849e-06 0)
(1.34464e-06 1.76056e-06 0)
(2.49857e-06 2.24332e-06 0)
(3.78735e-06 2.48476e-06 -1.66146e-19)
(5.20096e-06 2.30067e-06 1.6418e-19)
(6.48747e-06 1.69663e-06 0)
(7.33369e-06 8.04287e-07 -1.58998e-19)
(7.45412e-06 -2.45811e-07 1.5689e-19)
(6.61539e-06 -1.38559e-06 0)
(5.91122e-06 -3.28152e-06 0)
(6.96828e-07 -1.0135e-06 0)
(-1.46807e-07 5.14938e-06 0)
(-5.20983e-07 5.52823e-06 0)
(-7.06344e-07 5.10364e-06 0)
(-8.55688e-07 5.05382e-06 0)
(-9.5905e-07 4.88966e-06 0)
(-9.98405e-07 4.44399e-06 0)
(-9.71821e-07 3.73896e-06 4.49345e-20)
(-8.6913e-07 2.86252e-06 -4.47173e-20)
(-6.76827e-07 1.93423e-06 -8.91314e-20)
(-3.79857e-07 1.08616e-06 8.85838e-20)
(2.50734e-08 4.40213e-07 8.81714e-20)
(5.29573e-07 1.00586e-07 -8.75192e-20)
(1.12776e-06 1.28664e-07 0)
(1.89087e-06 4.71411e-07 8.62876e-20)
(2.83684e-06 1.05347e-06 3.43794e-23)
(3.88343e-06 1.83498e-06 -8.47007e-20)
(4.99173e-06 2.66105e-06 0)
(6.13817e-06 3.32766e-06 -1.65662e-19)
(7.30284e-06 3.61161e-06 1.6379e-19)
(8.40742e-06 3.28359e-06 0)
(9.20228e-06 2.37177e-06 0)
(9.18833e-06 1.18727e-06 1.56324e-19)
(7.98121e-06 -4.78368e-08 -1.54275e-19)
(6.84696e-06 -2.28825e-06 0)
(9.7423e-07 -6.54566e-07 0)
(-1.26218e-07 5.54944e-06 0)
(-4.02699e-07 5.75096e-06 0)
(-4.11123e-07 5.23802e-06 0)
(-3.25387e-07 5.10616e-06 0)
(-1.38926e-07 4.83058e-06 0)
(1.49648e-07 4.25045e-06 0)
(5.26712e-07 3.39629e-06 0)
(9.92885e-07 2.36406e-06 0)
(1.56549e-06 1.29245e-06 0)
(2.25812e-06 3.27651e-07 0)
(3.06984e-06 -3.96982e-07 -8.73536e-20)
(3.98468e-06 -7.70197e-07 8.67378e-20)
(4.95969e-06 -7.02389e-07 0)
(5.98585e-06 -1.79122e-07 0)
(7.10929e-06 6.59549e-07 0)
(8.27999e-06 1.77798e-06 0)
(9.39896e-06 3.05022e-06 0)
(1.04338e-05 4.25905e-06 0)
(1.13301e-05 5.16963e-06 0)
(1.1964e-05 5.50034e-06 0)
(1.22708e-05 4.95994e-06 0)
(1.19256e-05 3.63713e-06 -1.56033e-19)
(1.02101e-05 2.03818e-06 1.54076e-19)
(8.28352e-06 -7.62287e-07 0)
(1.39583e-06 -1.36454e-07 0)
(-9.88695e-08 5.81331e-06 0)
(-2.25168e-07 5.71817e-06 0)
(2.59688e-08 5.01811e-06 0)
(4.58398e-07 4.70783e-06 0)
(1.06446e-06 4.24447e-06 4.41344e-20)
(1.82525e-06 3.47385e-06 -4.39948e-20)
(2.7077e-06 2.43121e-06 0)
(3.71592e-06 1.24635e-06 0)
(4.86941e-06 7.03428e-08 -8.72107e-20)
(6.16089e-06 -9.5518e-07 1.73559e-19)
(7.56508e-06 -1.69705e-06 1.12425e-22)
(9.05621e-06 -2.04153e-06 -8.58322e-20)
(1.05878e-05 -1.89322e-06 0)
(1.20752e-05 -1.17876e-06 0)
(1.35665e-05 1.76499e-08 8.42161e-20)
(1.50266e-05 1.57662e-06 -8.34716e-20)
(1.6282e-05 3.44205e-06 -1.65527e-19)
(1.72675e-05 5.39884e-06 3.76044e-23)
(1.78584e-05 7.16329e-06 1.62167e-19)
(1.78912e-05 8.30766e-06 1.60035e-19)
(1.73578e-05 8.48225e-06 -1.58243e-19)
(1.61432e-05 7.41842e-06 1.55527e-19)
(1.35841e-05 5.37277e-06 -1.53661e-19)
(1.05609e-05 1.50088e-06 0)
(2.13634e-06 5.5753e-07 0)
(-6.34445e-08 5.90384e-06 0)
(2.09806e-08 5.35116e-06 0)
(6.18204e-07 4.32006e-06 0)
(1.51663e-06 3.70494e-06 0)
(2.69045e-06 2.95097e-06 0)
(4.08192e-06 1.91588e-06 0)
(5.67175e-06 6.71885e-07 0)
(7.46393e-06 -6.47976e-07 0)
(9.42233e-06 -1.90295e-06 -8.60945e-20)
(1.15101e-05 -2.95086e-06 8.5636e-20)
(1.37057e-05 -3.65485e-06 0)
(1.59853e-05 -3.88952e-06 0)
(1.82988e-05 -3.55515e-06 0)
(2.05487e-05 -2.56405e-06 0)
(2.2667e-05 -9.01435e-07 0)
(2.46241e-05 1.21971e-06 0)
(2.62726e-05 3.80442e-06 0)
(2.73889e-05 6.68449e-06 -1.6259e-19)
(2.76319e-05 9.55694e-06 1.60985e-19)
(2.69104e-05 1.18746e-05 0)
(2.538e-05 1.30983e-05 0)
(2.29282e-05 1.27387e-05 0)
(1.88671e-05 1.05465e-05 0)
(1.40581e-05 5.06651e-06 0)
(3.36147e-06 1.58269e-06 0)
(-1.94788e-08 5.78395e-06 0)
(3.34007e-07 4.5646e-06 0)
(1.37315e-06 3.02042e-06 0)
(2.87014e-06 1.94854e-06 0)
(4.76446e-06 7.96339e-07 0)
(7.01141e-06 -5.59025e-07 0)
(9.56237e-06 -2.04179e-06 0)
(1.23456e-05 -3.52708e-06 0)
(1.53133e-05 -4.86927e-06 0)
(1.84386e-05 -5.91131e-06 0)
(2.16959e-05 -6.50279e-06 8.42274e-20)
(2.50479e-05 -6.51556e-06 -8.37115e-20)
(2.84369e-05 -5.85084e-06 0)
(3.17523e-05 -4.43053e-06 0)
(3.48018e-05 -2.19176e-06 8.24239e-20)
(3.75957e-05 7.01157e-07 -8.17603e-20)
(3.99916e-05 4.18533e-06 -1.62484e-19)
(4.14864e-05 8.20124e-06 1.61019e-19)
(4.16273e-05 1.24147e-05 0)
(4.03808e-05 1.6366e-05 0)
(3.78799e-05 1.91978e-05 0)
(3.38034e-05 2.00264e-05 1.54021e-19)
(2.7197e-05 1.8138e-05 -3.04135e-19)
(1.94641e-05 1.08621e-05 1.50085e-19)
(5.38524e-06 3.2948e-06 0)
(3.17863e-08 5.41868e-06 0)
(7.17854e-07 3.28154e-06 0)
(2.30122e-06 1.01307e-06 0)
(4.54678e-06 -6.88224e-07 0)
(7.37078e-06 -2.37305e-06 0)
(1.067e-05 -4.15497e-06 0)
(1.43541e-05 -5.97728e-06 -4.20665e-20)
(1.8353e-05 -7.69954e-06 4.19052e-20)
(2.26115e-05 -9.14873e-06 -8.36351e-20)
(2.70865e-05 -1.0153e-05 8.32281e-20)
(3.17343e-05 -1.05556e-05 -8.30093e-20)
(3.65014e-05 -1.02231e-05 8.25231e-20)
(4.13134e-05 -9.05174e-06 0)
(4.6049e-05 -6.96929e-06 -8.18302e-20)
(5.05083e-05 -3.90922e-06 8.12368e-20)
(5.46384e-05 6.60715e-08 0)
(5.82172e-05 4.68357e-06 0)
(6.05719e-05 1.00755e-05 -1.59425e-19)
(6.12514e-05 1.60697e-05 -1.07152e-22)
(6.007e-05 2.21394e-05 1.56598e-19)
(5.66724e-05 2.72659e-05 0)
(5.05434e-05 3.00273e-05 -1.53094e-19)
(4.05914e-05 2.89445e-05 1.51487e-19)
(2.82325e-05 1.98978e-05 0)
(8.62455e-06 6.25078e-06 -1.2207e-19)
(9.22596e-08 4.776e-06 0)
(1.17633e-06 1.43011e-06 0)
(3.41553e-06 -1.81356e-06 0)
(6.55355e-06 -4.35577e-06 0)
(1.04519e-05 -6.75555e-06 0)
(1.49788e-05 -9.13743e-06 0)
(2.00281e-05 -1.14223e-05 0)
(2.55163e-05 -1.34544e-05 0)
(3.13749e-05 -1.50507e-05 0)
(3.75447e-05 -1.60275e-05 0)
(4.39677e-05 -1.62121e-05 0)
(5.05789e-05 -1.54525e-05 0)
(5.72921e-05 -1.3626e-05 0)
(6.39865e-05 -1.06474e-05 0)
(7.04587e-05 -6.43587e-06 0)
(7.64279e-05 -9.56885e-07 0)
(8.17336e-05 5.33751e-06 0)
(8.59374e-05 1.25247e-05 0)
(8.82478e-05 2.08347e-05 0)
(8.79408e-05 2.96054e-05 0)
(8.42201e-05 3.77495e-05 0)
(7.61551e-05 4.34679e-05 0)
(6.19056e-05 4.42299e-05 0)
(4.21734e-05 3.32455e-05 0)
(1.38051e-05 1.03192e-05 0)
(1.58521e-07 3.83318e-06 9.01732e-21)
(1.69858e-06 -1.05393e-06 1.02634e-20)
(4.68321e-06 -5.56353e-06 -2.05018e-20)
(8.83189e-06 -9.20143e-06 4.09655e-20)
(1.39569e-05 -1.25346e-05 -4.0881e-20)
(1.99002e-05 -1.56915e-05 0)
(2.6542e-05 -1.85917e-05 4.07233e-20)
(3.37885e-05 -2.10719e-05 4.06444e-20)
(4.15626e-05 -2.29388e-05 -1.6187e-19)
(4.97987e-05 -2.39907e-05 8.06097e-20)
(5.84346e-05 -2.40292e-05 8.03889e-20)
(6.74018e-05 -2.28698e-05 -7.99566e-20)
(7.66115e-05 -2.03519e-05 -7.97116e-20)
(8.5949e-05 -1.63498e-05 1.58557e-19)
(9.52078e-05 -1.07599e-05 1.40382e-22)
(0.000103903 -3.40295e-06 7.87116e-20)
(0.000111923 5.50565e-06 -1.55945e-19)
(0.000119171 1.53729e-05 -1.55385e-19)
(0.000124429 2.65348e-05 3.08519e-19)
(0.000126378 3.86425e-05 -1.53085e-19)
(0.000123772 5.05152e-05 0)
(0.000114542 6.01551e-05 1.5092e-19)
(9.45184e-05 6.43883e-05 -2.98845e-19)
(6.27755e-05 5.21687e-05 1.47903e-19)
(2.22053e-05 1.56962e-05 1.2297e-19)
(2.21789e-07 2.58423e-06 0)
(2.25995e-06 -4.20844e-06 0)
(6.0609e-06 -1.0299e-05 0)
(1.13222e-05 -1.52956e-05 0)
(1.78032e-05 -1.97919e-05 0)
(2.53244e-05 -2.39371e-05 0)
(3.37583e-05 -2.7659e-05 0)
(4.30083e-05 -3.07937e-05 0)
(5.30003e-05 -3.31383e-05 0)
(6.36756e-05 -3.44735e-05 0)
(7.49834e-05 -3.45745e-05 0)
(8.68702e-05 -3.3221e-05 0)
(9.92674e-05 -3.02076e-05 0)
(0.000112072 -2.53494e-05 0)
(0.000125117 -1.84996e-05 0)
(0.000138021 -9.43967e-06 0)
(0.000150236 2.18184e-06 0)
(0.000161642 1.57343e-05 0)
(0.00017144 3.09842e-05 -1.52168e-19)
(0.000177832 4.81477e-05 1.5089e-19)
(0.000178638 6.6255e-05 0)
(0.000170218 8.33974e-05 0)
(0.000144352 9.66624e-05 0)
(9.8403e-05 8.85654e-05 0)
(4.65889e-05 3.13723e-05 0)
(2.77682e-07 1.00324e-06 0)
(2.83958e-06 -8.13283e-06 0)
(7.50713e-06 -1.61801e-05 0)
(1.39537e-05 -2.28599e-05 0)
(2.18832e-05 -2.88203e-05 0)
(3.1102e-05 -3.42448e-05 0)
(4.1482e-05 -3.90732e-05 0)
(5.29334e-05 -4.31389e-05 0)
(6.53954e-05 -4.62264e-05 0)
(7.88292e-05 -4.8093e-05 0)
(9.32106e-05 -4.84786e-05 -7.76305e-20)
(0.00010852 -4.71131e-05 7.72443e-20)
(0.000124729 -4.37197e-05 0)
(0.000141781 -3.80101e-05 0)
(0.000159577 -2.96774e-05 0)
(0.000177924 -1.83675e-05 0)
(0.000196317 -3.3981e-06 0)
(0.000214443 1.56567e-05 0)
(0.000231864 3.82585e-05 0)
(0.000246886 6.54297e-05 0)
(0.000256864 9.73994e-05 0)
(0.000257558 0.000132372 -1.47986e-19)
(0.000237887 0.000165982 1.46659e-19)
(0.00019305 0.000173425 0)
(0.000150667 6.25548e-05 0)
(3.2549e-07 -7.25243e-07 0)
(3.30597e-06 -1.24406e-05 0)
(8.6887e-06 -2.26723e-05 0)
(1.61405e-05 -3.12425e-05 0)
(2.53184e-05 -3.8879e-05 0)
(3.60287e-05 -4.58271e-05 0)
(4.81532e-05 -5.20658e-05 0)
(6.16164e-05 -5.74538e-05 0)
(7.6378e-05 -6.17919e-05 0)
(9.24286e-05 -6.48467e-05 0)
(0.000109784 -6.63611e-05 0)
(0.000128483 -6.60597e-05 0)
(0.000148581 -6.36489e-05 0)
(0.000170146 -5.88094e-05 0)
(0.000193256 -5.11727e-05 0)
(0.000218042 -4.03141e-05 0)
(0.000244565 -2.56924e-05 0)
(0.000272347 -6.46502e-06 0)
(0.000301965 1.77923e-05 0)
(0.000334262 4.78824e-05 0)
(0.000369052 8.41259e-05 0)
(0.000406511 0.000124001 0)
(0.000448373 0.000157512 0)
(0.00049721 0.000157992 0)
(0.000509649 2.73602e-05 0)
(3.43688e-07 -2.49036e-06 0)
(3.59043e-06 -1.68781e-05 0)
(9.4663e-06 -2.93974e-05 0)
(1.76257e-05 -3.99473e-05 0)
(2.77051e-05 -4.93455e-05 0)
(3.95116e-05 -5.79208e-05 0)
(5.29356e-05 -6.57156e-05 0)
(6.79143e-05 -7.26372e-05 0)
(8.44246e-05 -7.8527e-05 0)
(0.000102479 -8.31878e-05 0)
(0.000122124 -8.63963e-05 0)
(0.00014344 -8.79106e-05 0)
(0.000166544 -8.74725e-05 0)
(0.000191597 -8.48038e-05 0)
(0.00021881 -7.95942e-05 0)
(0.000248462 -7.14828e-05 0)
(0.000280931 -6.00979e-05 0)
(0.00031658 -4.49312e-05 0)
(0.000356384 -2.49522e-05 0)
(0.000401721 -1.41332e-07 0)
(0.000454048 2.90824e-05 0)
(0.000515441 6.0129e-05 0)
(0.000588057 8.49013e-05 0)
(0.000670767 8.45313e-05 0)
(0.000743711 2.87605e-05 0)
(3.57989e-07 -4.40612e-06 0)
(3.82117e-06 -2.17186e-05 0)
(1.01098e-05 -3.67427e-05 0)
(1.88691e-05 -4.94603e-05 0)
(2.97235e-05 -6.0793e-05 0)
(4.24793e-05 -7.11574e-05 0)
(5.70321e-05 -8.06592e-05 0)
(7.33265e-05 -8.92535e-05 0)
(9.13478e-05 -9.68218e-05 0)
(0.00011112 -0.000103204 0)
(0.000132704 -0.000108214 0)
(0.000156199 -0.000111652 0)
(0.00018175 -0.000113308 0)
(0.000209552 -0.000112964 0)
(0.00023987 -0.000110387 0)
(0.00027305 -0.000105322 0)
(0.000309547 -9.74916e-05 0)
(0.000349972 -8.66164e-05 0)
(0.000395215 -7.23058e-05 0)
(0.000446404 -5.47294e-05 0)
(0.000504745 -3.45333e-05 0)
(0.000571181 -1.37766e-05 0)
(0.000645385 2.70755e-06 0)
(0.000722232 7.03104e-06 0)
(0.000781352 -5.03698e-06 0)
(3.70563e-07 -6.41897e-06 0)
(4.00142e-06 -2.68423e-05 0)
(1.06227e-05 -4.4541e-05 0)
(1.98741e-05 -5.95862e-05 0)
(3.13719e-05 -7.3009e-05 0)
(4.49217e-05 -8.53177e-05 0)
(6.04198e-05 -9.6683e-05 0)
(7.78112e-05 -0.000107109 0)
(9.70817e-05 -0.000116517 0)
(0.000118254 -0.000124784 0)
(0.000141386 -0.000131764 0)
(0.000166573 -0.000137298 0)
(0.000193948 -0.000141224 0)
(0.000223693 -0.000143383 0)
(0.000256042 -0.000143615 0)
(0.000291296 -0.000141759 0)
(0.00032983 -0.000137649 0)
(0.000372099 -0.000131122 0)
(0.000418645 -0.000122064 0)
(0.000469996 -0.000110543 0)
(0.000526425 -9.68658e-05 0)
(0.000587474 -8.17437e-05 0)
(0.00065092 -6.63014e-05 0)
(0.000710436 -5.11002e-05 0)
(0.00075123 -3.09748e-05 0)
(3.80373e-07 -8.50794e-06 0)
(4.13791e-06 -3.2189e-05 0)
(1.10182e-05 -5.27016e-05 0)
(2.06597e-05 -7.02091e-05 0)
(3.26749e-05 -8.58538e-05 0)
(4.68673e-05 -0.000100236 0)
(6.31302e-05 -0.00011359 0)
(8.14038e-05 -0.000125969 0)
(0.000101666 -0.000137331 0)
(0.000123928 -0.000147588 0)
(0.000148231 -0.000156628 0)
(0.000174646 -0.000164323 0)
(0.00020327 -0.000170552 0)
(0.00023423 -0.000175195 0)
(0.000267684 -0.000178139 0)
(0.000303814 -0.000179267 0)
(0.000342824 -0.000178454 0)
(0.00038491 -0.000175551 0)
(0.000430206 -0.000170382 0)
(0.00047866 -0.000162734 0)
(0.000529804 -0.000152265 0)
(0.00058237 -0.000138327 0)
(0.000633658 -0.000119529 0)
(0.000678492 -9.26288e-05 0)
(0.000708325 -4.95584e-05 0)
(3.87017e-07 -1.06528e-05 0)
(4.23323e-06 -3.7705e-05 0)
(1.13028e-05 -6.11445e-05 0)
(2.12382e-05 -8.12287e-05 0)
(3.36508e-05 -9.92089e-05 0)
(4.83421e-05 -0.000115774 0)
(6.51996e-05 -0.000131222 0)
(8.41541e-05 -0.000145647 0)
(0.000105171 -0.000159045 0)
(0.000128242 -0.000171354 0)
(0.000153384 -0.000182487 0)
(0.000180631 -0.00019234 0)
(0.000210031 -0.00020081 0)
(0.000241642 -0.000207795 0)
(0.000275524 -0.000213192 0)
(0.000311729 -0.000216883 0)
(0.000350278 -0.000218713 0)
(0.000391126 -0.000218454 0)
(0.000434101 -0.000215752 0)
(0.00047879 -0.000210042 0)
(0.000524386 -0.000200377 0)
(0.000569486 -0.00018516 0)
(0.000611862 -0.000161701 0)
(0.000648297 -0.000125465 0)
(0.00067505 -6.87115e-05 0)
(3.90613e-07 -1.28336e-05 0)
(4.28969e-06 -4.33373e-05 0)
(1.14838e-05 -6.97898e-05 0)
(2.16232e-05 -9.25419e-05 0)
(3.43225e-05 -0.000112949 0)
(4.93803e-05 -0.000131784 0)
(6.66775e-05 -0.000149403 0)
(8.61338e-05 -0.00016594 0)
(0.000107698 -0.000181419 0)
(0.000131342 -0.000195802 0)
(0.000157052 -0.000209016 0)
(0.000184824 -0.000220969 0)
(0.000214657 -0.000231559 0)
(0.00024654 -0.00024068 0)
(0.000280446 -0.000248211 0)
(0.000316313 -0.000253997 0)
(0.000354025 -0.000257815 0)
(0.000393377 -0.000259322 0)
(0.00043403 -0.000257973 0)
(0.000475445 -0.00025291 0)
(0.00051682 -0.000242786 0)
(0.000557042 -0.00022553 0)
(0.000594726 -0.000198054 0)
(0.000628449 -0.000155908 0)
(0.00065751 -9.29064e-05 0)
(3.91345e-07 -1.50318e-05 0)
(4.31041e-06 -4.90361e-05 0)
(1.15692e-05 -7.85628e-05 0)
(2.18309e-05 -0.000104052 0)
(3.47158e-05 -0.000126957 0)
(5.00215e-05 -0.000148129 0)
(6.76219e-05 -0.000167976 0)
(8.74253e-05 -0.000186668 0)
(0.000109365 -0.000204253 0)
(0.000133391 -0.000220708 0)
(0.000159463 -0.000235968 0)
(0.000187543 -0.000249942 0)
(0.000217585 -0.000262519 0)
(0.000249528 -0.000273572 0)
(0.000283277 -0.000282946 0)
(0.000318699 -0.000290435 0)
(0.000355598 -0.000295737 0)
(0.000393698 -0.000298403 0)
(0.000432623 -0.000297745 0)
(0.000471879 -0.000292731 0)
(0.000510861 -0.000281841 0)
(0.000548912 -0.000262912 0)
(0.000585479 -0.000233007 0)
(0.000620447 -0.000188364 0)
(0.000654784 -0.000124513 0)
(3.89459e-07 -1.72303e-05 0)
(4.29863e-06 -5.4756e-05 0)
(1.15685e-05 -8.73954e-05 0)
(2.18787e-05 -0.000115673 0)
(3.48593e-05 -0.00014113 0)
(5.03084e-05 -0.00016469 0)
(6.80942e-05 -0.000186807 0)
(8.81151e-05 -0.000207683 0)
(0.00011029 -0.000227384 0)
(0.000134551 -0.0002459 0)
(0.000160835 -0.000263167 0)
(0.000189078 -0.000279087 0)
(0.000219204 -0.000293536 0)
(0.000251116 -0.00030636 0)
(0.000284685 -0.000317365 0)
(0.000319744 -0.000326292 0)
(0.000356073 -0.000332779 0)
(0.0003934 -0.0003363 0)
(0.000431399 -0.000336094 0)
(0.000469714 -0.000331075 0)
(0.000508006 -0.000319737 0)
(0.000546063 -0.000300073 0)
(0.000583985 -0.000269567 0)
(0.000622477 -0.000225304 0)
(0.000663287 -0.000164277 0)
(3.85209e-07 -1.94137e-05 0)
(4.25833e-06 -6.04564e-05 0)
(1.14916e-05 -9.62274e-05 0)
(2.17856e-05 -0.000127328 0)
(3.4783e-05 -0.000155377 0)
(5.02849e-05 -0.000181363 0)
(6.81561e-05 -0.000205782 0)
(8.82868e-05 -0.000228863 0)
(0.000110585 -0.000250687 0)
(0.000134969 -0.000271252 0)
(0.00016136 -0.000290493 0)
(0.000189676 -0.000308306 0)
(0.000219823 -0.000324548 0)
(0.00025169 -0.000339041 0)
(0.000285138 -0.000351557 0)
(0.00032 -0.000361799 0)
(0.000356075 -0.000369363 0)
(0.000393142 -0.000373692 0)
(0.000430972 -0.000374016 0)
(0.000469375 -0.00036929 0)
(0.000508268 -0.000358144 0)
(0.000547795 -0.00033886 0)
(0.000588488 -0.000309429 0)
(0.000631493 -0.000267731 0)
(0.00067881 -0.000211876 0)
(3.78917e-07 -2.15689e-05 0)
(4.19334e-06 -6.61023e-05 0)
(1.13492e-05 -0.000105006 0)
(2.15707e-05 -0.00013895 0)
(3.45171e-05 -0.00016962 0)
(4.99945e-05 -0.000198061 0)
(6.78665e-05 -0.000224808 0)
(8.80183e-05 -0.00025011 0)
(0.00011035 -0.000274064 0)
(0.00013477 -0.000296672 0)
(0.000161191 -0.00031787 0)
(0.000189523 -0.000337546 0)
(0.000219666 -0.000355543 0)
(0.000251508 -0.000371664 0)
(0.000284921 -0.000385659 0)
(0.000319761 -0.00039721 0)
(0.000355872 -0.000405897 0)
(0.000393105 -0.000411168 0)
(0.000431343 -0.000412296 0)
(0.000470553 -0.000408341 0)
(0.000510859 -0.000398132 0)
(0.000552648 -0.000380283 0)
(0.000596697 -0.000353281 0)
(0.000644322 -0.000315671 0)
(0.000697496 -0.000266363 0)
(3.70875e-07 -2.36845e-05 0)
(4.10793e-06 -7.16636e-05 0)
(1.11517e-05 -0.000113686 0)
(2.12532e-05 -0.000150481 0)
(3.40908e-05 -0.000183792 0)
(4.9478e-05 -0.000214711 0)
(6.72796e-05 -0.000243805 0)
(8.7378e-05 -0.000271345 0)
(0.000109669 -0.000297437 0)
(0.000134057 -0.000322091 0)
(0.000160449 -0.000345242 0)
(0.000188755 -0.000366775 0)
(0.000218879 -0.000386526 0)
(0.00025072 -0.000404286 0)
(0.000284171 -0.000419797 0)
(0.000319125 -0.000432734 0)
(0.000355481 -0.000442688 0)
(0.000393166 -0.000449142 0)
(0.000432169 -0.000451443 0)
(0.000472584 -0.000448788 0)
(0.000514683 -0.000440227 0)
(0.000558992 -0.000424697 0)
(0.000606395 -0.000401119 0)
(0.00065821 -0.000368561 0)
(0.000716238 -0.000326485 0)
(3.61422e-07 -2.57515e-05 0)
(4.00587e-06 -7.71157e-05 0)
(1.09094e-05 -0.000122231 0)
(2.08513e-05 -0.000161874 0)
(3.35315e-05 -0.000197835 0)
(4.8773e-05 -0.000231248 0)
(6.64432e-05 -0.000262707 0)
(8.64251e-05 -0.000292498 0)
(0.000108612 -0.000320741 0)
(0.000132908 -0.00034745 0)
(0.000159221 -0.000372565 0)
(0.000187464 -0.00039597 0)
(0.000217551 -0.0004175 0)
(0.000249399 -0.000436947 0)
(0.000282928 -0.000454053 0)
(0.000318069 -0.000468506 0)
(0.000354778 -0.000479923 0)
(0.000393054 -0.000487841 0)
(0.000432967 -0.0004917 0)
(0.000474709 -0.000490844 0)
(0.000518638 -0.000484535 0)
(0.000565348 -0.000471999 0)
(0.000615729 -0.000452512 0)
(0.000671011 -0.000425536 0)
(0.000732763 -0.000390905 0)
(3.50829e-07 -2.77624e-05 0)
(3.89109e-06 -8.24387e-05 0)
(1.06317e-05 -0.000130609 0)
(2.03817e-05 -0.000173089 0)
(3.2864e-05 -0.000211704 0)
(4.79124e-05 -0.00024762 0)
(6.53992e-05 -0.000281456 0)
(8.52087e-05 -0.000313512 0)
(0.000107236 -0.000343918 0)
(0.000131386 -0.000372697 0)
(0.00015757 -0.000399795 0)
(0.000185709 -0.0004251 0)
(0.000215729 -0.000448454 0)
(0.000247566 -0.000469655 0)
(0.000281168 -0.000488458 0)
(0.000316506 -0.000504574 0)
(0.000353581 -0.000517662 0)
(0.000392451 -0.00052732 0)
(0.000433248 -0.000533088 0)
(0.000476224 -0.000534452 0)
(0.000521782 -0.000530865 0)
(0.000570526 -0.000521794 0)
(0.000623297 -0.000506793 0)
(0.00068119 -0.000485611 0)
(0.000745534 -0.000458326 0)
(3.39396e-07 -2.97118e-05 0)
(3.76668e-06 -8.76173e-05 0)
(1.0327e-05 -0.000138796 0)
(1.98591e-05 -0.000184093 0)
(3.21099e-05 -0.000225357 0)
(4.69249e-05 -0.000263781 0)
(6.41822e-05 -0.000300001 0)
(8.37699e-05 -0.000334333 0)
(0.000105585 -0.000366916 0)
(0.000129536 -0.000397781 0)
(0.00015554 -0.000426885 0)
(0.000183525 -0.000454124 0)
(0.000213431 -0.000479352 0)
(0.000245213 -0.00050238 0)
(0.000278845 -0.000522986 0)
(0.000314327 -0.000540911 0)
(0.0003517 -0.00055586 0)
(0.000391062 -0.0005675 0)
(0.000432589 -0.000575467 0)
(0.00047656 -0.000579374 0)
(0.00052339 -0.000578837 0)
(0.00057366 -0.000573519 0)
(0.000628128 -0.000563184 0)
(0.000687742 -0.000547785 0)
(0.000753606 -0.000527554 0)
(3.27327e-07 -3.15956e-05 0)
(3.6357e-06 -9.26401e-05 0)
(1.00024e-05 -0.000146773 0)
(1.92962e-05 -0.000194859 0)
(3.12875e-05 -0.000238761 0)
(4.58343e-05 -0.000279691 0)
(6.28216e-05 -0.000318299 0)
(8.21413e-05 -0.000354913 0)
(0.000103695 -0.000389682 0)
(0.000127393 -0.000422649 0)
(0.000153161 -0.000453781 0)
(0.000180934 -0.000482988 0)
(0.000210664 -0.000510138 0)
(0.000242322 -0.000535063 0)
(0.000275902 -0.000557566 0)
(0.000311429 -0.000577424 0)
(0.000348971 -0.000594391 0)
(0.000388651 -0.000608203 0)
(0.000430665 -0.000618582 0)
(0.000475302 -0.000625252 0)
(0.000522965 -0.000627966 0)
(0.000574184 -0.000626536 0)
(0.000629629 -0.000620882 0)
(0.000690099 -0.000611098 0)
(0.000756495 -0.000597508 0)
(3.14854e-07 -3.34112e-05 0)
(3.50032e-06 -9.7499e-05 0)
(9.66417e-06 -0.000154525 0)
(1.87031e-05 -0.000205365 0)
(3.04118e-05 -0.000251887 0)
(4.46604e-05 -0.000295314 0)
(6.13407e-05 -0.000336307 0)
(8.03497e-05 -0.000375204 0)
(0.000101592 -0.000412166 0)
(0.000124985 -0.000447245 0)
(0.000150456 -0.000480423 0)
(0.00017795 -0.000511625 0)
(0.000207429 -0.000540737 0)
(0.000238874 -0.000567614 0)
(0.000272295 -0.000592088 0)
(0.000307733 -0.000613975 0)
(0.000345272 -0.000633077 0)
(0.000385047 -0.00064919 0)
(0.000427259 -0.000662116 0)
(0.000472189 -0.000671674 0)
(0.00052021 -0.000677721 0)
(0.000571793 -0.000680187 0)
(0.000627512 -0.000679104 0)
(0.000688029 -0.000674658 0)
(0.00075407 -0.000667226 0)
(3.02106e-07 -3.5157e-05 0)
(3.36265e-06 -0.000102188 0)
(9.31674e-06 -0.000162041 0)
(1.80886e-05 -0.000215595 0)
(2.94953e-05 -0.000264711 0)
(4.34191e-05 -0.000310618 0)
(5.97589e-05 -0.000353987 0)
(7.84164e-05 -0.000395163 0)
(9.9301e-05 -0.000434315 0)
(0.000122332 -0.000471511 0)
(0.000147444 -0.000506744 0)
(0.000174586 -0.000539958 0)
(0.000203727 -0.000571059 0)
(0.000234857 -0.000599926 0)
(0.000267994 -0.000626421 0)