/*--------------------------------*- C++ -*----------------------------------*\
  =========                 |
  \\      /  F ield         | OpenFOAM: The Open Source CFD Toolbox
   \\    /   O peration     | Website:  https://openfoam.org
    \\  /    A nd           | Version:  13
     \\/     M anipulation  |
\*---------------------------------------------------------------------------*/
FoamFile
{
    format      ascii;
    class       volScalarField;
    location    "2";
    object      p;
}
// * * * * * * * * * * * * * * * * * * * * * * * * * * * * * * * * * * * * * //

dimensions      [0 2 -2 0 0 0 0];

internalField   nonuniform List<scalar> 
6440
(
0.000989633
0.000989791
0.00099014
0.000990667
0.000991355
0.000992173
0.000993085
0.000994053
0.000995032
0.000995974
0.000996832
0.000997557
0.0009981
0.000998417
0.000998445
0.000998142
0.000997501
0.000996547
0.000995368
0.000994067
0.000992732
0.000991446
0.000990319
0.00098945
0.000988917
0.000988717
0.000988899
0.000989232
0.000989713
0.000990328
0.000991053
0.00099186
0.000992715
0.000993583
0.000994422
0.000995191
0.000995845
0.00099634
0.000996638
0.000996724
0.00099645
0.000995801
0.000994907
0.000993832
0.0009926
0.000991264
0.000989889
0.000988576
0.000987461
0.00098655
0.000987387
0.000987629
0.000988015
0.00098853
0.000989168
0.000989908
0.000990728
0.000991599
0.000992485
0.000993348
0.000994146
0.000994832
0.000995356
0.000995668
0.000995712
0.000995349
0.000994753
0.00099392
0.000992812
0.000991455
0.000989892
0.000988181
0.000986432
0.000984851
0.000983477
0.000985833
0.000986157
0.00098663
0.000987228
0.000987945
0.000988766
0.000989668
0.000990624
0.000991598
0.000992552
0.000993441
0.000994213
0.000994813
0.000995179
0.000995222
0.000994968
0.000994465
0.00099361
0.000992388
0.000990814
0.000988925
0.000986785
0.000984517
0.000982414
0.000980594
0.000984113
0.000984519
0.000985086
0.000985779
0.000986594
0.000987518
0.000988528
0.000989596
0.000990687
0.000991763
0.000992779
0.00099368
0.000994416
0.000994927
0.000995035
0.000994975
0.000994531
0.000993651
0.000992313
0.000990515
0.000988293
0.000985713
0.000982901
0.000980233
0.000977928
0.000982247
0.000982723
0.000983376
0.000984163
0.000985079
0.000986112
0.000987237
0.000988427
0.000989646
0.000990858
0.000992021
0.000993087
0.000994005
0.000994736
0.000995013
0.000995055
0.000994689
0.000993826
0.000992418
0.000990444
0.000987928
0.000984935
0.000981591
0.000978346
0.000975536
0.000980242
0.00098077
0.000981493
0.000982364
0.000983377
0.000984518
0.000985761
0.000987075
0.000988423
0.000989767
0.000991062
0.000992257
0.00099328
0.000994018
0.000994696
0.000994979
0.000994782
0.000994018
0.000992618
0.000990544
0.000987802
0.000984449
0.000980609
0.0009768
0.000973478
0.000978095
0.000978651
0.000979424
0.000980366
0.00098147
0.000982718
0.000984079
0.00098552
0.000987002
0.000988486
0.000989929
0.000991285
0.000992505
0.000993527
0.000994368
0.000994832
0.000994811
0.000994193
0.000992878
0.000990794
0.000987916
0.000984282
0.000980008
0.000975664
0.000971819
0.000975788
0.000976346
0.000977146
0.000978146
0.000979333
0.000980685
0.000982168
0.000983742
0.000985368
0.000987003
0.000988609
0.000990144
0.00099157
0.000992807
0.000993818
0.000994482
0.000994681
0.00099428
0.000993149
0.000991174
0.000988288
0.000984486
0.000979857
0.000975003
0.000970628
0.000973294
0.00097383
0.000974634
0.000975676
0.000976938
0.000978392
0.000979999
0.000981715
0.000983494
0.000985294
0.000987075
0.000988801
0.000990453
0.000991809
0.000993002
0.000993896
0.000994355
0.000994241
0.000993408
0.000991684
0.000988934
0.000985109
0.0009802
0.000974857
0.000970087
0.000970579
0.000971071
0.000971859
0.000972927
0.000974253
0.000975803
0.000977535
0.000979398
0.00098134
0.00098331
0.000985255
0.000987116
0.000988809
0.0009905
0.000991947
0.000993093
0.000993835
0.000994048
0.000993655
0.00099233
0.000989889
0.000986262
0.00098105
0.000975305
0.000970149
0.000967614
0.000968045
0.000968797
0.000969875
0.00097125
0.000972887
0.000974737
0.000976751
0.000978869
0.000981034
0.000983187
0.000985275
0.000987257
0.000989116
0.000990758
0.000992129
0.00099313
0.000993698
0.000994172
0.000993345
0.000991194
0.000987549
0.000982287
0.000976275
0.000970841
0.000964377
0.000964736
0.000965436
0.000966504
0.000967908
0.00096961
0.000971566
0.000973722
0.000976021
0.0009784
0.000980797
0.000983155
0.000985418
0.000987536
0.000989461
0.000991155
0.000992592
0.00099371
0.00099431
0.000993963
0.00099236
0.000989145
0.000984081
0.000977966
0.000972311
0.000960867
0.000961145
0.000961779
0.000962813
0.000964216
0.000965951
0.000967979
0.000970252
0.000972718
0.000975306
0.000977957
0.000980623
0.000983213
0.000985673
0.000987961
0.000990035
0.000991851
0.000993338
0.000994331
0.000994559
0.000993644
0.000991099
0.000986472
0.000980406
0.000974544
0.000957103
0.000957292
0.000957848
0.000958822
0.000960184
0.000961903
0.000963947
0.000966279
0.000968854
0.000971622
0.00097453
0.000977524
0.000980443
0.000983316
0.000986055
0.000988586
0.000990843
0.000992757
0.000994229
0.000995073
0.000994939
0.000993247
0.000989268
0.000983402
0.000977291
0.00095312
0.000953227
0.000953689
0.000954573
0.000955848
0.00095749
0.000959477
0.000961783
0.000964378
0.000967227
0.00097028
0.000973461
0.000976789
0.000980132
0.000983406
0.000986517
0.000989371
0.000991884
0.000993974
0.000995504
0.000996176
0.000995378
0.000992142
0.000986666
0.000980097
0.000948985
0.000949014
0.000949371
0.000950132
0.000951271
0.000952767
0.000954609
0.000956783
0.000959275
0.000962068
0.000965135
0.000968447
0.000972005
0.000975723
0.000979521
0.000983295
0.000986926
0.000990295
0.000993285
0.000995745
0.000997346
0.000997445
0.000994908
0.000990157
0.00098286
0.00094478
0.000944735
0.000944979
0.000945589
0.00094654
0.00094782
0.000949423
0.000951348
0.000953593
0.00095616
0.000959051
0.000962267
0.000965821
0.000969684
0.000973814
0.000978149
0.000982598
0.000987039
0.000991333
0.000995274
0.000998262
0.000999436
0.00099758
0.00099374
0.000986148
0.000940594
0.000940482
0.000940608
0.000941046
0.000941775
0.000942783
0.000944073
0.000945649
0.000947521
0.000949702
0.00095221
0.000955072
0.000958324
0.000961979
0.000966053
0.00097056
0.000975504
0.000980877
0.00098668
0.000992827
0.000997758
0.00100013
0.0010004
0.000999426
0.000994576
0.000936507
0.00093634
0.000936358
0.000936633
0.000937145
0.000937891
0.000938871
0.000940092
0.000941563
0.000943303
0.000945336
0.000947674
0.000950375
0.000953486
0.000957064
0.000961185
0.000965946
0.000971472
0.00097794
0.000985472
0.000992025
0.000997783
0.00100368
0.0010106
0.00101597
0.000932606
0.000932448
0.000932434
0.000932622
0.000932995
0.000933549
0.000934286
0.000935217
0.000936357
0.000937725
0.000939347
0.000941288
0.000943572
0.000946242
0.000949361
0.000953005
0.000957263
0.000962242
0.00096804
0.000974648
0.000981827
0.000990381
0.00100253
0.00102417
0.00106937
0.00092878
0.000928645
0.000928644
0.000928829
0.000929192
0.000929729
0.000930444
0.000931341
0.000932432
0.000933733
0.000935267
0.000937069
0.000939163
0.000941605
0.000944456
0.000947791
0.0009517
0.000956298
0.000961726
0.000968158
0.000975929
0.000986065
0.00100081
0.00102428
0.00106164
0.00092506
0.000924961
0.000924989
0.00092519
0.000925559
0.000926093
0.000926796
0.000927671
0.000928728
0.00092998
0.000931447
0.000933154
0.00093514
0.000937445
0.000940129
0.000943265
0.000946944
0.000951286
0.000956455
0.000962689
0.000970406
0.000980416
0.000994023
0.00101277
0.00103672
0.000921451
0.000921389
0.000921445
0.00092166
0.00092203
0.000922554
0.000923235
0.000924076
0.000925085
0.000926272
0.000927654
0.000929255
0.000931106
0.000933248
0.000935733
0.000938627
0.000942015
0.000946003
0.00095074
0.000956429
0.000963381
0.000972047
0.000982932
0.000996172
0.00101059
0.000917964
0.000917934
0.000918013
0.000918234
0.000918597
0.000919101
0.000919747
0.000920538
0.000921478
0.000922577
0.000923849
0.000925312
0.000926992
0.000928923
0.000931151
0.00093373
0.000936727
0.000940224
0.000944326
0.000949164
0.000954894
0.000961675
0.000969543
0.00097813
0.00098631
0.00091461
0.000914606
0.000914702
0.000914923
0.00091527
0.000915743
0.000916342
0.000917068
0.000917924
0.000918915
0.000920052
0.000921349
0.000922826
0.00092451
0.000926434
0.000928638
0.000931167
0.000934074
0.000937413
0.000941237
0.000945578
0.000950413
0.000955573
0.000960575
0.000964546
0.000911398
0.000911415
0.00091152
0.000911734
0.000912058
0.000912491
0.000913032
0.000913681
0.000914437
0.000915304
0.000916287
0.000917397
0.000918647
0.000920055
0.000921642
0.000923432
0.000925449
0.000927713
0.000930238
0.000933015
0.000936001
0.000939073
0.00094197
0.000944269
0.000945314
0.000908333
0.000908365
0.000908474
0.000908675
0.000908968
0.000909354
0.000909828
0.00091039
0.000911035
0.000911766
0.000912583
0.000913491
0.000914497
0.000915611
0.000916842
0.0009182
0.000919688
0.000921302
0.000923021
0.000924798
0.000926541
0.000928093
0.000929196
0.000929481
0.000928461
0.000905421
0.000905464
0.000905571
0.000905752
0.00090601
0.000906342
0.000906743
0.000907209
0.000907737
0.000908322
0.000908964
0.000909662
0.000910417
0.000911231
0.000912102
0.000913028
0.000913996
0.000914983
0.000915947
0.000916817
0.000917482
0.000917778
0.000917474
0.000916265
0.000913783
0.000902667
0.000902715
0.000902815
0.000902973
0.000903191
0.000903464
0.000903787
0.000904154
0.000904559
0.000904995
0.000905459
0.000905945
0.000906448
0.000906964
0.000907483
0.000907993
0.000908469
0.000908875
0.000909157
0.000909234
0.000908992
0.000908275
0.000906884
0.000904574
0.000901064
0.000900073
0.000900123
0.000900212
0.000900344
0.000900517
0.000900729
0.000900971
0.000901237
0.000901517
0.000901805
0.000902091
0.000902368
0.000902627
0.000902856
0.000903041
0.00090316
0.000903184
0.000903068
0.000902753
0.000902155
0.000901166
0.000899647
0.00089743
0.000894318
0.000890098
0.000897642
0.000897691
0.000897767
0.000897869
0.000897997
0.000898145
0.000898306
0.00089847
0.000898628
0.000898769
0.000898884
0.00089896
0.000898985
0.000898945
0.00089882
0.000898583
0.000898202
0.000897628
0.000896801
0.000895641
0.000894051
0.000891908
0.000889074
0.000885391
0.000880695
0.000895377
0.000895423
0.000895483
0.000895553
0.000895634
0.000895719
0.000895799
0.000895864
0.000895903
0.000895904
0.000895855
0.000895742
0.00089555
0.000895262
0.000894855
0.000894301
0.000893564
0.000892597
0.000891341
0.000889724
0.000887658
0.00088504
0.000881756
0.000877679
0.000872684
0.000893278
0.000893319
0.000893362
0.000893401
0.000893435
0.000893458
0.00089346
0.000893429
0.000893355
0.000893223
0.000893021
0.000892733
0.000892342
0.00089183
0.000891173
0.000890341
0.000889298
0.000888001
0.000886394
0.000884411
0.000881978
0.000879007
0.000875405
0.000871072
0.000865911
0.000891347
0.000891382
0.000891406
0.000891414
0.000891403
0.000891366
0.000891293
0.000891172
0.000890991
0.000890737
0.000890394
0.000889946
0.000889378
0.000888667
0.000887791
0.00088672
0.000885421
0.000883851
0.000881962
0.000879695
0.000876986
0.000873763
0.000869949
0.000865466
0.000860239
0.000889584
0.000889611
0.000889617
0.000889594
0.00088954
0.000889446
0.000889303
0.000889098
0.000888819
0.000888452
0.000887982
0.000887392
0.000886666
0.000885783
0.00088472
0.000883449
0.000881938
0.000880149
0.000878038
0.000875557
0.000872648
0.000869254
0.000865313
0.000860762
0.000855544
0.000887987
0.000888006
0.000887995
0.000887943
0.000887847
0.000887701
0.000887493
0.000887211
0.000886843
0.000886374
0.000885791
0.000885077
0.000884214
0.000883184
0.000881963
0.000880527
0.000878846
0.000876886
0.000874608
0.00087197
0.000868927
0.000865428
0.000861426
0.000856871
0.00085172
0.000886555
0.000886567
0.000886539
0.000886459
0.000886326
0.00088613
0.000885863
0.000885512
0.000885064
0.000884506
0.000883824
0.000883002
0.000882023
0.00088087
0.000879521
0.000877952
0.000876138
0.000874048
0.000871649
0.000868906
0.00086578
0.000862231
0.000858221
0.000853711
0.000848668
0.000885287
0.000885292
0.000885247
0.000885142
0.000884974
0.000884734
0.000884414
0.000884
0.000883482
0.000882847
0.00088208
0.000881167
0.000880092
0.000878838
0.000877386
0.000875714
0.000873801
0.000871618
0.000869138
0.000866331
0.000863166
0.00085961
0.000855633
0.000851205
0.000846302
0.000884179
0.000884177
0.000884118
0.00088399
0.00088379
0.000883511
0.000883143
0.000882676
0.000882097
0.000881395
0.000880557
0.000879568
0.000878415
0.000877081
0.00087555
0.000873803
0.000871818
0.000869574
0.000867047
0.000864212
0.000861043
0.000857514
0.000853602
0.000849285
0.000844545
0.000883228
0.00088322
0.000883147
0.000882998
0.000882771
0.000882457
0.000882049
0.000881535
0.000880905
0.000880147
0.000879249
0.0008782
0.000876985
0.000875591
0.000874002
0.000872202
0.000870172
0.000867894
0.000865348
0.000862514
0.000859369
0.000855896
0.000852074
0.000847889
0.000843327
0.000882431
0.000882416
0.000882332
0.000882165
0.000881913
0.00088157
0.000881126
0.000880573
0.0008799
0.000879097
0.000878152
0.000877056
0.000875795
0.000874357
0.000872729
0.000870896
0.000868844
0.000866555
0.000864013
0.000861203
0.000858106
0.000854709
0.000850997
0.000846958
0.000842585
0.000881782
0.000881762
0.000881667
0.000881484
0.000881212
0.000880843
0.00088037
0.000879785
0.000879077
0.000878238
0.000877258
0.000876127
0.000874833
0.000873367
0.000871717
0.000869869
0.000867811
0.000865531
0.000863014
0.000860246
0.000857216
0.000853912
0.000850323
0.000846441
0.000842263
0.000881277
0.000881252
0.000881148
0.000880952
0.000880662
0.000880273
0.000879776
0.000879164
0.00087843
0.000877564
0.000876558
0.000875402
0.000874089
0.000872608
0.000870949
0.000869102
0.000867055
0.000864799
0.000862322
0.000859613
0.000856664
0.000853465
0.000850009
0.000846291
0.00084231
0.000880909
0.00088088
0.000880768
0.000880562
0.000880258
0.000879852
0.000879336
0.000878705
0.00087795
0.000877065
0.000876042
0.000874873
0.00087355
0.000872065
0.00087041
0.000868576
0.000866554
0.000864335
0.000861911
0.000859274
0.000856415
0.00085333
0.000850014
0.000846465
0.000842682
0.000880674
0.000880642
0.000880524
0.000880308
0.000879993
0.000879574
0.000879044
0.000878399
0.00087763
0.000876733
0.000875701
0.000874527
0.000873204
0.000871726
0.000870085
0.000868275
0.000866288
0.000864117
0.000861756
0.000859199
0.00085644
0.000853476
0.000850304
0.000846923
0.000843336
0.000880565
0.00088053
0.000880407
0.000880184
0.000879861
0.000879432
0.000878893
0.000878238
0.000877461
0.000876559
0.000875524
0.000874352
0.000873038
0.000871575
0.000869957
0.00086818
0.000866237
0.000864123
0.000861833
0.000859362
0.000856709
0.000853869
0.000850843
0.000847631
0.000844237
0.000880576
0.000880538
0.000880411
0.000880184
0.000879854
0.000879419
0.000878874
0.000878214
0.000877435
0.000876532
0.000875502
0.000874339
0.000873039
0.000871598
0.000870011
0.000868274
0.000866382
0.000864331
0.000862118
0.00085974
0.000857195
0.000854482
0.000851602
0.000848558
0.000845352
0.000880699
0.00088066
0.00088053
0.0008803
0.000879967
0.000879528
0.00087898
0.000878319
0.000877542
0.000876644
0.000875623
0.000874475
0.000873196
0.000871783
0.000870232
0.000868541
0.000866705
0.000864722
0.00086259
0.000860308
0.000857874
0.000855288
0.000852554
0.000849673
0.00084665
0.000880929
0.000880888
0.000880757
0.000880525
0.00088019
0.000879751
0.000879204
0.000878545
0.000877773
0.000876885
0.000875877
0.000874748
0.000873495
0.000872115
0.000870605
0.000868964
0.000867189
0.000865278
0.00086323
0.000861045
0.000858723
0.000856264
0.000853673
0.000850951
0.000848106
0.000881259
0.000881217
0.000881085
0.000880852
0.000880518
0.00088008
0.000879536
0.000878883
0.00087812
0.000877244
0.000876254
0.000875148
0.000873924
0.000872581
0.000871116
0.000869529
0.000867817
0.000865981
0.000864019
0.000861932
0.000859721
0.000857388
0.000854936
0.000852369
0.000849694
0.000881682
0.000881639
0.000881507
0.000881275
0.000880943
0.000880508
0.000879969
0.000879325
0.000878573
0.000877713
0.000876744
0.000875664
0.000874473
0.000873169
0.000871752
0.000870221
0.000868575
0.000866815
0.000864939
0.00086295
0.000860849
0.000858639
0.000856323
0.000853906
0.000851395
0.000882191
0.000882148
0.000882017
0.000881786
0.000881457
0.000881027
0.000880496
0.000879862
0.000879124
0.000878282
0.000877336
0.000876285
0.000875129
0.000873868
0.000872501
0.000871028
0.000869448
0.000867764
0.000865975
0.000864083
0.00086209
0.000859999
0.000857815
0.000855543
0.000853188
0.00088278
0.000882737
0.000882606
0.000882379
0.000882054
0.000881631
0.000881108
0.000880486
0.000879764
0.000878943
0.000878022
0.000877002
0.000875883
0.000874665
0.000873349
0.000871935
0.000870423
0.000868814
0.000867111
0.000865314
0.000863427
0.000861453
0.000859397
0.000857262
0.000855057
0.000883442
0.000883399
0.00088327
0.000883046
0.000882726
0.000882311
0.000881799
0.00088119
0.000880486
0.000879686
0.000878792
0.000877804
0.000876724
0.000875551
0.000874287
0.000872931
0.000871487
0.000869954
0.000868334
0.000866631
0.000864847
0.000862985
0.000861051
0.000859049
0.000856986
0.00088417
0.000884127
0.000884001
0.000883781
0.000883467
0.00088306
0.00088256
0.000881967
0.000881281
0.000880504
0.000879638
0.000878684
0.000877642
0.000876515
0.000875302
0.000874006
0.000872628
0.000871169
0.000869632
0.00086802
0.000866335
0.000864582
0.000862765
0.000860889
0.000858961
0.000884958
0.000884916
0.000884792
0.000884577
0.00088427
0.000883873
0.000883385
0.000882807
0.000882141
0.000881389
0.000880551
0.000879631
0.000878629
0.000877547
0.000876386
0.000875149
0.000873836
0.00087245
0.000870993
0.000869469
0.00086788
0.000866231
0.000864526
0.00086277
0.00086097
0.000885801
0.00088576
0.000885638
0.000885428
0.000885129
0.000884741
0.000884267
0.000883706
0.00088306
0.000882332
0.000881524
0.000880638
0.000879675
0.000878638
0.000877529
0.000876349
0.0008751
0.000873786
0.000872407
0.000870967
0.000869471
0.000867921
0.000866323
0.000864682
0.000863003
0.000886691
0.000886651
0.000886533
0.000886328
0.000886037
0.00088566
0.000885199
0.000884655
0.00088403
0.000883327
0.000882548
0.000881696
0.000880773
0.000879781
0.000878722
0.000877599
0.000876413
0.000875167
0.000873863
0.000872506
0.000871097
0.000869643
0.000868147
0.000866613
0.000865049
0.000887625
0.000887586
0.00088747
0.000887271
0.000886988
0.000886622
0.000886175
0.000885648
0.000885045
0.000884367
0.000883617
0.000882799
0.000881915
0.000880967
0.000879958
0.000878889
0.000877764
0.000876584
0.000875353
0.000874074
0.000872751
0.000871387
0.000869987
0.000868556
0.0008671
0.000888595
0.000888557
0.000888445
0.000888252
0.000887977
0.000887622
0.000887189
0.00088668
0.000886098
0.000885445
0.000884725
0.00088394
0.000883094
0.000882189
0.000881228
0.000880213
0.000879146
0.000878031
0.000876869
0.000875665
0.000874422
0.000873145
0.000871836
0.000870502
0.000869148
0.000889597
0.00088956
0.000889452
0.000889264
0.000888998
0.000888655
0.000888236
0.000887744
0.000887183
0.000886555
0.000885863
0.000885112
0.000884303
0.000883441
0.000882526
0.000881562
0.000880552
0.000879498
0.000878403
0.000877271
0.000876105
0.000874909
0.000873688
0.000872445
0.000871186
0.000890625
0.00089059
0.000890485
0.000890303
0.000890046
0.000889714
0.000889309
0.000888835
0.000888295
0.000887691
0.000887028
0.000886309
0.000885537
0.000884714
0.000883845
0.000882931
0.000881975
0.00088098
0.000879949
0.000878885
0.000877792
0.000876674
0.000875534
0.000874377
0.000873209
0.000891675
0.000891641
0.00089154
0.000891364
0.000891115
0.000890795
0.000890405
0.000889948
0.000889428
0.000888848
0.000888212
0.000887525
0.000886788
0.000886005
0.000885179
0.000884313
0.000883409
0.000882471
0.0008815
0.000880501
0.000879477
0.000878432
0.000877369
0.000876294
0.00087521
0.000892742
0.00089271
0.000892612
0.000892443
0.000892202
0.000891893
0.000891517
0.000891077
0.000890577
0.00089002
0.000889412
0.000888754
0.000888052
0.000887307
0.000886523
0.000885703
0.000884849
0.000883964
0.000883051
0.000882114
0.000881155
0.000880179
0.000879189
0.000878189
0.000877185
0.000893822
0.000893791
0.000893697
0.000893534
0.000893302
0.000893003
0.000892641
0.000892218
0.000891737
0.000891204
0.000890621
0.000889993
0.000889323
0.000888615
0.000887871
0.000887095
0.000886288
0.000885454
0.000884596
0.000883717
0.000882821
0.00088191
0.000880988
0.00088006
0.000879129
0.00089491
0.00089488
0.00089479
0.000894633
0.000894409
0.000894122
0.000893773
0.000893366
0.000892904
0.000892393
0.000891835
0.000891236
0.000890598
0.000889925
0.000889219
0.000888484
0.000887723
0.000886938
0.000886132
0.000885308
0.000884469
0.00088362
0.000882762
0.000881901
0.00088104
0.000896002
0.000895974
0.000895888
0.000895737
0.000895522
0.000895245
0.000894909
0.000894517
0.000894074
0.000893584
0.000893051
0.000892479
0.000891871
0.000891231
0.000890562
0.000889867
0.000889148
0.000888409
0.000887652
0.00088688
0.000886097
0.000885305
0.000884508
0.000883709
0.000882913
0.000897095
0.000897069
0.000896987
0.000896841
0.000896634
0.000896368
0.000896045
0.000895668
0.000895243
0.000894774
0.000894263
0.000893717
0.000893138
0.00089253
0.000891896
0.000891239
0.000890561
0.000889865
0.000889154
0.000888432
0.0008877
0.000886962
0.000886221
0.000885482
0.000884746
0.000898186
0.000898161
0.000898082
0.000897943
0.000897744
0.000897487
0.000897177
0.000896815
0.000896407
0.000895957
0.000895469
0.000894948
0.000894397
0.000893819
0.000893218
0.000892596
0.000891956
0.000891302
0.000890635
0.000889958
0.000889274
0.000888587
0.0008879
0.000887215
0.000886536
0.000899269
0.000899247
0.000899172
0.000899038
0.000898847
0.0008986
0.000898302
0.000897954
0.000897563
0.000897132
0.000896665
0.000896167
0.000895642
0.000895093
0.000894523
0.000893935
0.000893332
0.000892716
0.00089209
0.000891456
0.000890818
0.000890179
0.000889541
0.000888907
0.00088828
0.000900344
0.000900324
0.000900252
0.000900124
0.000899941
0.000899704
0.000899416
0.000899083
0.000898707
0.000898294
0.000897847
0.000897372
0.000896872
0.00089635
0.00089581
0.000895253
0.000894684
0.000894104
0.000893516
0.000892924
0.000892328
0.000891733
0.000891141
0.000890555
0.000889978
0.000901406
0.000901388
0.000901321
0.000901198
0.000901022
0.000900794
0.000900518
0.000900198
0.000899837
0.000899441
0.000899014
0.00089856
0.000898083
0.000897586
0.000897074
0.000896547
0.00089601
0.000895464
0.000894912
0.000894357
0.000893802
0.000893248
0.000892699
0.000892158
0.000891626
0.000902453
0.000902437
0.000902374
0.000902257
0.000902088
0.00090187
0.000901604
0.000901296
0.00090095
0.00090057
0.000900161
0.000899727
0.000899272
0.0008988
0.000898313
0.000897815
0.000897307
0.000896793
0.000896275
0.000895755
0.000895237
0.000894722
0.000894213
0.000893713
0.000893224
0.000903483
0.000903469
0.00090341
0.000903299
0.000903137
0.000902927
0.000902672
0.000902376
0.000902043
0.000901679
0.000901287
0.000900871
0.000900437
0.000899988
0.000899525
0.000899053
0.000898573
0.000898089
0.000897602
0.000897115
0.000896631
0.000896152
0.000895681
0.000895219
0.000894769
0.000904492
0.000904481
0.000904427
0.000904322
0.000904167
0.000903965
0.00090372
0.000903435
0.000903115
0.000902765
0.000902389
0.000901991
0.000901576
0.000901147
0.000900708
0.00090026
0.000899806
0.000899349
0.000898891
0.000898435
0.000897983
0.000897538
0.000897101
0.000896674
0.000896261
0.000905479
0.000905472
0.000905422
0.000905322
0.000905175
0.000904981
0.000904745
0.000904471
0.000904163
0.000903826
0.000903465
0.000903084
0.000902687
0.000902278
0.000901859
0.000901433
0.000901003
0.000900572
0.000900141
0.000899714
0.000899291
0.000898876
0.000898471
0.000898078
0.000897698
0.000906442
0.000906438
0.000906394
0.0009063
0.000906159
0.000905974
0.000905747
0.000905483
0.000905186
0.000904862
0.000904514
0.000904148
0.000903768
0.000903376
0.000902976
0.000902571
0.000902164
0.000901756
0.00090135
0.000900949
0.000900554
0.000900167
0.000899791
0.000899429
0.00089908
0.000907378
0.000907379
0.00090734
0.000907253
0.000907119
0.000906941
0.000906723
0.000906469
0.000906182
0.000905869
0.000905534
0.000905182
0.000904816
0.000904441
0.000904059
0.000903673
0.000903285
0.000902899
0.000902516
0.000902138
0.000901769
0.000901408
0.00090106
0.000900725
0.000900406
0.000908288
0.000908294
0.000908261
0.00090818
0.000908053
0.000907883
0.000907673
0.000907427
0.00090715
0.000906847
0.000906524
0.000906184
0.000905832
0.000905471
0.000905105
0.000904736
0.000904367
0.000904
0.000903637
0.000903282
0.000902935
0.000902599
0.000902275
0.000901966
0.000901673
0.000909168
0.00090918
0.000909154
0.000909081
0.000908961
0.000908798
0.000908595
0.000908357
0.000908089
0.000907795
0.000907482
0.000907153
0.000906812
0.000906464
0.000906112
0.000905758
0.000905406
0.000905057
0.000904713
0.000904377
0.000904052
0.000903737
0.000903437
0.000903151
0.000902883
0.000910018
0.000910038
0.00091002
0.000909954
0.000909841
0.000909685
0.00090949
0.000909259
0.000908998
0.000908712
0.000908407
0.000908087
0.000907757
0.00090742
0.00090708
0.00090674
0.000906402
0.000906068
0.000905742
0.000905424
0.000905117
0.000904823
0.000904543
0.00090428
0.000904033
0.000910838
0.000910867
0.000910858
0.0009108
0.000910695
0.000910545
0.000910356
0.000910131
0.000909876
0.000909597
0.000909298
0.000908986
0.000908664
0.000908337
0.000908008
0.000907679
0.000907353
0.000907034
0.000906722
0.00090642
0.000906131
0.000905854
0.000905594
0.00090535
0.000905124
0.000911628
0.000911667
0.000911669
0.00091162
0.000911521
0.000911378
0.000911194
0.000910974
0.000910724
0.000910449
0.000910156
0.000909849
0.000909534
0.000909214
0.000908893
0.000908574
0.000908259
0.000907951
0.000907653
0.000907365
0.000907091
0.000906831
0.000906587
0.000906361
0.000906154
0.000912386
0.000912438
0.000912453
0.000912413
0.000912323
0.000912185
0.000912005
0.000911788
0.00091154
0.000911268
0.000910978
0.000910674
0.000910363
0.000910049
0.000909734
0.000909423
0.000909117
0.00090882
0.000908532
0.000908257
0.000907996
0.000907751
0.000907522
0.000907312
0.000907122
0.000913116
0.000913183
0.000913213
0.000913184
0.0009131
0.000912967
0.000912789
0.000912573
0.000912326
0.000912054
0.000911764
0.000911462
0.000911153
0.000910841
0.000910531
0.000910226
0.000909927
0.000909638
0.00090936
0.000909095
0.000908846
0.000908613
0.000908399
0.000908203
0.000908028
0.000913817
0.000913904
0.000913952
0.000913934
0.000913857
0.000913726
0.000913549
0.000913331
0.000913081
0.000912806
0.000912514
0.00091221
0.000911901
0.00091159
0.000911282
0.00091098
0.000910686
0.000910404
0.000910134
0.000909878
0.000909639
0.000909418
0.000909215
0.000909033
0.000908872
0.000914494
0.000914605
0.000914674
0.000914668
0.000914596
0.000914466
0.000914285
0.000914062
0.000913806
0.000913524
0.000913226
0.000912918
0.000912605
0.000912293
0.000911985
0.000911685
0.000911394
0.000911116
0.000910853
0.000910605
0.000910374
0.000910163
0.000909971
0.0009098
0.000909651
0.000915152
0.000915293
0.000915386
0.000915392
0.000915323
0.00091519
0.000915001
0.000914768
0.0009145
0.000914208
0.0009139
0.000913584
0.000913265
0.000912949
0.000912639
0.000912338
0.000912049
0.000911774
0.000911515
0.000911273
0.00091105
0.000910847
0.000910664
0.000910504
0.000910366
0.000915798
0.000915977
0.000916098
0.000916116
0.000916045
0.000915902
0.000915699
0.000915449
0.000915164
0.000914856
0.000914534
0.000914206
0.000913878
0.000913555
0.000913241
0.000912938
0.000912649
0.000912376
0.00091212
0.000911883
0.000911666
0.00091147
0.000911295
0.000911144
0.000911015
0.000916446
0.000916672
0.000916825
0.000916849
0.00091677
0.000916607
0.000916381
0.000916105
0.000915797
0.000915467
0.000915126
0.000914782
0.000914442
0.000914109
0.000913789
0.000913482
0.000913192
0.000912919
0.000912666
0.000912432
0.00091222
0.00091203
0.000911863
0.000911719
0.000911599
0.000917115
0.000917399
0.000917586
0.00091761
0.000917507
0.000917312
0.000917049
0.000916738
0.000916396
0.000916037
0.000915672
0.000915308
0.000914952
0.000914609
0.00091428
0.000913968
0.000913676
0.000913403
0.00091315
0.00091292
0.000912712
0.000912527
0.000912365
0.000912228
0.000912116
0.000917842
0.000918192
0.000918411
0.000918416
0.00091827
0.000918021
0.000917704
0.000917343
0.000916957
0.000916561
0.000916167
0.00091578
0.000915406
0.00091505
0.000914712
0.000914394
0.000914098
0.000913824
0.000913573
0.000913345
0.00091314
0.000912959
0.000912803
0.000912672
0.000912566
0.000918688
0.000919106
0.00091934
0.000919293
0.000919068
0.000918736
0.000918342
0.000917914
0.000917473
0.000917034
0.000916604
0.000916192
0.000915799
0.000915428
0.000915081
0.000914757
0.000914458
0.000914183
0.000913932
0.000913706
0.000913504
0.000913327
0.000913176
0.000913049
0.000912949
0.00091977
0.000920228
0.00092043
0.00092027
0.000919911
0.000919454
0.000918955
0.000918442
0.000917934
0.000917444
0.000916977
0.000916536
0.000916124
0.00091574
0.000915384
0.000915055
0.000914753
0.000914477
0.000914227
0.000914003
0.000913804
0.00091363
0.000913483
0.000913361
0.000913265
0.000921294
0.00092169
0.000921753
0.000921372
0.000920797
0.000920162
0.000919522
0.000918905
0.000918322
0.000917778
0.000917273
0.000916807
0.000916376
0.000915981
0.000915617
0.000915285
0.000914981
0.000914705
0.000914457
0.000914235
0.000914038
0.000913868
0.000913724
0.000913606
0.000913514
0.000923616
0.000923689
0.000923382
0.000922607
0.000921702
0.000920821
0.000920012
0.000919279
0.000918617
0.000918021
0.000917482
0.000916994
0.00091655
0.000916146
0.000915779
0.000915445
0.000915142
0.000914867
0.000914621
0.000914402
0.000914209
0.000914042
0.0009139
0.000913785
0.000913696
0.000927647
0.00092663
0.000925371
0.000923904
0.000922535
0.000921359
0.000920363
0.000919515
0.000918785
0.000918148
0.000917587
0.000917086
0.000916637
0.000916231
0.000915865
0.000915533
0.000915233
0.000914962
0.000914719
0.000914503
0.000914314
0.00091415
0.000914012
0.000913899
0.000913813
0.000936597
0.000931418
0.000927653
0.000925059
0.000923118
0.000921631
0.000920475
0.00091955
0.000918784
0.000918134
0.000917569
0.000917071
0.000916628
0.00091623
0.00091587
0.000915545
0.000915252
0.000914987