/*--------------------------------*- C++ -*----------------------------------*\
  =========                 |
  \\      /  F ield         | OpenFOAM: The Open Source CFD Toolbox
   \\    /   O peration     | Website:  https://openfoam.org
    \\  /    A nd           | Version:  13
     \\/     M anipulation  |
\*---------------------------------------------------------------------------*/
FoamFile
{
    format      ascii;
    class       volScalarField;
    location    "2";
    object      p;
}
// * * * * * * * * * * * * * * * * * * * * * * * * * * * * * * * * * * * * * //

dimensions      [0 2 -2 0 0 0 0];

internalField   nonuniform List<scalar> 
6440
(
323.719
323.718
323.716
323.714
323.711
323.707
323.703
323.699
323.694
323.69
323.685
323.681
323.677
323.673
323.67
323.667
323.665
323.663
323.663
323.663
323.664
323.666
323.668
323.67
323.672
323.72
323.719
323.717
323.715
323.712
323.708
323.704
323.699
323.694
323.69
323.686
323.681
323.677
323.674
323.671
323.668
323.666
323.665
323.664
323.664
323.665
323.667
323.669
323.671
323.673
323.721
323.72
323.718
323.715
323.711
323.707
323.703
323.698
323.693
323.688
323.684
323.68
323.676
323.672
323.669
323.667
323.665
323.664
323.663
323.663
323.664
323.666
323.668
323.671
323.674
323.721
323.72
323.717
323.714
323.71
323.705
323.7
323.695
323.69
323.685
323.68
323.677
323.673
323.67
323.668
323.665
323.664
323.663
323.662
323.662
323.663
323.664
323.667
323.671
323.674
323.72
323.719
323.715
323.711
323.707
323.701
323.696
323.69
323.685
323.68
323.676
323.673
323.67
323.668
323.665
323.663
323.662
323.661
323.66
323.66
323.661
323.663
323.665
323.669
323.674
323.719
323.717
323.713
323.707
323.702
323.696
323.69
323.684
323.679
323.674
323.671
323.668
323.666
323.663
323.661
323.66
323.659
323.658
323.658
323.658
323.659
323.66
323.663
323.667
323.672
323.716
323.713
323.708
323.702
323.695
323.689
323.682
323.676
323.671
323.666
323.663
323.66
323.659
323.657
323.656
323.655
323.654
323.654
323.654
323.654
323.655
323.657
323.66
323.664
323.67
323.712
323.708
323.702
323.694
323.687
323.68
323.673
323.667
323.661
323.656
323.653
323.65
323.649
323.649
323.648
323.648
323.648
323.649
323.65
323.65
323.652
323.654
323.657
323.662
323.667
323.705
323.701
323.693
323.683
323.676
323.669
323.662
323.655
323.649
323.644
323.64
323.638
323.637
323.637
323.638
323.639
323.64
323.642
323.644
323.646
323.648
323.65
323.654
323.659
323.664
323.695
323.689
323.68
323.669
323.661
323.655
323.649
323.642
323.636
323.63
323.627
323.625
323.624
323.624
323.625
323.627
323.63
323.633
323.636
323.64
323.643
323.646
323.65
323.655
323.66
323.679
323.672
323.661
323.65
323.642
323.637
323.631
323.626
323.62
323.615
323.612
323.61
323.608
323.608
323.609
323.612
323.616
323.621
323.626
323.631
323.636
323.64
323.644
323.65
323.654
323.655
323.648
323.636
323.624
323.616
323.612
323.609
323.605
323.601
323.598
323.596
323.594
323.593
323.591
323.592
323.594
323.598
323.605
323.612
323.62
323.626
323.63
323.634
323.641
323.646
323.622
323.614
323.601
323.588
323.581
323.579
323.579
323.578
323.578
323.578
323.578
323.577
323.576
323.574
323.573
323.574
323.578
323.585
323.593
323.603
323.611
323.616
323.621
323.628
323.633
323.578
323.569
323.555
323.54
323.534
323.535
323.539
323.544
323.548
323.553
323.556
323.557
323.557
323.555
323.553
323.553
323.555
323.56
323.569
323.579
323.589
323.596
323.6
323.607
323.612
323.522
323.512
323.496
323.479
323.474
323.48
323.49
323.501
323.512
323.522
323.529
323.533
323.534
323.533
323.531
323.53
323.529
323.532
323.539
323.548
323.558
323.566
323.57
323.576
323.579
323.452
323.441
323.424
323.406
323.403
323.415
323.432
323.45
323.468
323.483
323.494
323.502
323.506
323.507
323.506
323.504
323.502
323.502
323.504
323.509
323.515
323.522
323.525
323.529
323.526
323.371
323.358
323.341
323.322
323.322
323.34
323.365
323.391
323.415
323.435
323.45
323.462
323.469
323.474
323.475
323.474
323.471
323.467
323.464
323.462
323.46
323.461
323.458
323.457
323.439
323.282
323.266
323.246
323.228
323.233
323.258
323.292
323.325
323.353
323.377
323.396
323.411
323.422
323.43
323.434
323.435
323.432
323.427
323.42
323.408
323.394
323.378
323.361
323.349
323.303
323.189
323.171
323.148
323.126
323.138
323.172
323.215
323.253
323.284
323.311
323.332
323.349
323.363
323.373
323.379
323.382
323.381
323.376
323.365
323.347
323.317
323.275
323.216
323.165
323.044
323.095
323.081
323.055
323.031
323.041
323.083
323.132
323.173
323.206
323.233
323.255
323.274
323.288
323.299
323.307
323.311
323.31
323.304
323.291
323.268
323.228
323.161
323.049
322.934
322.583
323
322.996
322.972
322.947
322.953
322.995
323.045
323.085
323.116
323.142
323.164
323.181
323.195
323.205
323.212
323.215
323.212
323.202
323.182
323.148
323.091
322.996
322.8
322.486
321.64
322.904
322.907
322.885
322.867
322.868
322.905
322.953
322.991
323.021
323.046
323.066
323.082
323.095
323.103
323.108
323.108
323.102
323.088
323.061
323.015
322.943
322.833
322.634
322.293
321.716
322.809
322.817
322.8
322.793
322.793
322.82
322.859
322.893
322.919
322.941
322.959
322.972
322.983
322.989
322.99
322.986
322.976
322.955
322.92
322.864
322.779
322.657
322.48
322.219
321.893
322.714
322.725
322.715
322.721
322.72
322.735
322.763
322.789
322.811
322.829
322.843
322.854
322.86
322.863
322.861
322.853
322.837
322.81
322.768
322.705
322.613
322.485
322.318
322.096
321.834
322.615
322.626
322.621
322.637
322.638
322.645
322.662
322.679
322.695
322.708
322.719
322.725
322.728
322.726
322.72
322.706
322.685
322.652
322.604
322.535
322.441
322.314
322.15
321.946
321.698
322.509
322.513
322.508
322.533
322.538
322.542
322.551
322.561
322.571
322.579
322.584
322.587
322.585
322.579
322.567
322.549
322.522
322.483
322.43
322.357
322.26
322.136
321.98
321.787
321.558
322.396
322.39
322.381
322.407
322.419
322.424
322.429
322.434
322.438
322.441
322.442
322.439
322.432
322.421
322.405
322.381
322.348
322.305
322.246
322.17
322.072
321.951
321.802
321.626
321.419
322.274
322.262
322.249
322.269
322.286
322.294
322.296
322.297
322.296
322.294
322.289
322.282
322.27
322.254
322.232
322.203
322.165
322.116
322.054
321.975
321.877
321.758
321.617
321.452
321.267
322.137
322.13
322.121
322.135
322.151
322.156
322.153
322.149
322.144
322.136
322.127
322.114
322.097
322.076
322.049
322.015
321.972
321.919
321.853
321.772
321.673
321.557
321.421
321.267
321.093
321.981
321.985
321.992
322.008
322.01
322.007
321.999
321.99
321.98
321.968
321.954
321.936
321.915
321.888
321.856
321.818
321.771
321.713
321.644
321.56
321.461
321.346
321.215
321.065
320.9
321.813
321.83
321.857
321.869
321.855
321.841
321.829
321.817
321.803
321.788
321.77
321.748
321.722
321.691
321.655
321.611
321.56
321.499
321.426
321.34
321.24
321.126
320.995
320.851
320.688
321.624
321.653
321.695
321.697
321.671
321.654
321.641
321.628
321.613
321.596
321.574
321.549
321.519
321.484
321.444
321.397
321.341
321.277
321.201
321.113
321.012
320.896
320.768
320.622
320.463
321.401
321.432
321.478
321.476
321.453
321.44
321.432
321.422
321.408
321.39
321.367
321.339
321.307
321.268
321.224
321.174
321.115
321.047
320.968
320.878
320.775
320.659
320.528
320.385
320.223
321.136
321.157
321.197
321.203
321.196
321.198
321.201
321.198
321.189
321.172
321.149
321.12
321.085
321.044
320.997
320.943
320.882
320.811
320.729
320.636
320.531
320.413
320.283
320.136
319.974
320.828
320.832
320.857
320.878
320.902
320.929
320.95
320.959
320.956
320.943
320.921
320.891
320.856
320.813
320.764
320.707
320.642
320.569
320.485
320.389
320.282
320.162
320.028
319.882
319.715
320.484
320.466
320.472
320.513
320.578
320.64
320.684
320.708
320.714
320.705
320.685
320.656
320.619
320.575
320.524
320.465
320.398
320.322
320.235
320.138
320.028
319.905
319.771
319.618
319.451
320.122
320.081
320.068
320.127
320.24
320.34
320.411
320.45
320.465
320.461
320.444
320.415
320.379
320.333
320.281
320.22
320.151
320.072
319.983
319.883
319.77
319.646
319.506
319.354
319.18
319.775
319.707
319.679
319.754
319.908
320.045
320.14
320.194
320.216
320.216
320.2
320.173
320.135
320.089
320.034
319.972
319.901
319.82
319.728
319.626
319.511
319.383
319.242
319.084
318.909
319.483
319.391
319.361
319.436
319.615
319.775
319.884
319.946
319.972
319.974
319.959
319.929
319.891
319.843
319.787
319.723
319.65
319.567
319.473
319.368
319.25
319.12
318.975
318.816
318.635
319.287
319.171
319.146
319.218
319.389
319.549
319.657
319.717
319.74
319.739
319.72
319.689
319.648
319.599
319.541
319.474
319.399
319.314
319.218
319.11
318.99
318.857
318.71
318.546
318.364
319.212
319.06
319.035
319.109
319.248
319.379
319.465
319.509
319.521
319.512
319.489
319.453
319.409
319.356
319.296
319.227
319.149
319.062
318.964
318.854
318.732
318.596
318.446
318.28
318.094
319.246
319.079
319.035
319.09
319.178
319.257
319.304
319.322
319.317
319.297
319.264
319.223
319.174
319.118
319.054
318.983
318.903
318.813
318.712
318.6
318.476
318.338
318.186
318.016
317.829
319.308
319.192
319.145
319.142
319.146
319.161
319.163
319.15
319.125
319.09
319.047
318.998
318.943
318.883
318.816
318.741
318.659
318.567
318.464
318.35
318.223
318.084
317.929
317.759
317.568
319.315
319.291
319.262
319.194
319.111
319.065
319.027
318.984
318.939
318.889
318.835
318.779
318.717
318.652
318.581
318.504
318.419
318.324
318.22
318.104
317.975
317.834
317.678
317.505
317.315
319.249
319.284
319.266
319.166
319.037
318.952
318.883
318.817
318.754
318.691
318.628
318.562
318.495
318.425
318.35
318.27
318.182
318.086
317.979
317.862
317.732
317.589
317.432
317.26
317.068
319.096
319.141
319.137
319.042
318.907
318.809
318.723
318.643
318.567
318.494
318.421
318.35
318.277
318.202
318.124
318.04
317.95
317.852
317.744
317.625
317.494
317.35
317.194
317.02
316.83
318.877
318.926
318.932
318.847
318.733
318.637
318.546
318.46
318.377
318.296
318.217
318.138
318.061
317.982
317.9
317.815
317.723
317.623
317.513
317.393
317.262
317.118
316.96
316.789
316.599
318.622
318.693
318.691
318.617
318.529
318.444
318.356
318.269
318.182
318.096
318.012
317.929
317.847
317.765
317.681
317.593
317.499
317.398
317.288
317.167
317.036
316.892
316.736
316.564
316.377
318.361
318.433
318.432
318.373
318.31
318.238
318.158
318.072
317.984
317.895
317.808
317.721
317.636
317.551
317.465
317.375
317.28
317.178
317.067
316.946
316.815
316.673
316.517
316.349
316.163
318.094
318.159
318.169
318.13
318.086
318.028
317.955
317.873
317.785
317.694
317.604
317.515
317.427
317.34
317.252
317.161
317.065
316.962
316.851
316.731
316.601
316.459
316.307
316.139
315.959
317.835
317.889
317.914
317.897
317.869
317.82
317.753
317.673
317.585
317.494
317.402
317.31
317.221
317.132
317.043
316.951
316.854
316.751
316.641
316.522
316.393
316.253
316.102
315.939
315.762
317.607
317.652
317.684
317.684
317.664
317.62
317.556
317.476
317.388
317.295
317.201
317.108
317.017
316.927
316.837
316.744
316.648
316.545
316.436
316.317
316.19
316.053
315.906
315.745
315.573
317.422
317.468
317.495
317.496
317.476
317.431
317.365
317.284
317.194
317.099
317.003
316.908
316.816
316.725
316.635
316.542
316.445
316.344
316.235
316.119
315.993
315.859
315.714
315.56
315.392
317.32
317.353
317.35
317.337
317.305
317.252
317.181
317.097
317.003
316.906
316.808
316.712
316.619
316.527
316.436
316.343
316.247
316.146
316.039
315.925
315.802
315.671
315.531
315.379
315.218
317.287
317.288
317.239
317.198
317.148
317.084
317.005
316.914
316.816
316.716
316.616
316.518
316.424
316.332
316.241
316.149
316.053
315.954
315.848
315.735
315.616
315.488
315.351
315.206
315.05
317.253
317.226
317.138
317.069
316.999
316.921
316.832
316.735
316.633
316.529
316.427
316.328
316.233
316.14
316.049
315.958
315.863
315.765
315.661
315.551
315.434
315.31
315.178
315.037
314.887
317.177
317.141
317.029
316.938
316.851
316.76
316.663
316.559
316.452
316.345
316.24
316.14
316.044
315.952
315.861
315.77
315.677
315.58
315.478
315.37
315.256
315.136
315.009
314.874
314.73
317.069
317.03
316.905
316.801
316.7
316.599
316.493
316.383
316.272
316.162
316.056
315.955
315.858
315.766
315.676
315.585
315.493
315.398
315.298
315.193
315.082
314.966
314.843
314.713
314.576
316.933
316.896
316.766
316.653
316.543
316.434
316.322
316.208
316.093
315.98
315.873
315.771
315.674
315.582
315.493
315.403
315.312
315.218
315.121
315.018
314.911
314.799
314.681
314.557
314.425
316.775
316.742
316.612
316.495
316.38
316.266
316.15
316.032
315.914
315.799
315.69
315.588
315.491
315.4
315.311
315.223
315.133
315.041
314.946
314.846
314.742
314.634
314.52
314.401
314.276
316.601
316.57
316.444
316.327
316.21
316.094
315.975
315.854
315.734
315.618
315.508
315.405
315.309
315.218
315.13
315.043
314.956
314.865
314.772
314.675
314.575
314.47
314.361
314.248
314.129
316.419
316.388
316.267
316.152
316.036
315.919
315.799
315.677
315.555
315.438
315.327
315.223
315.127
315.037
314.95
314.865
314.778
314.69
314.599
314.506
314.408
314.308
314.204
314.095
313.982
316.239
316.204
316.087
315.974
315.86
315.743
315.623
315.5
315.377
315.258
315.147
315.043
314.946
314.856
314.77
314.686
314.602
314.516
314.427
314.336
314.243
314.146
314.046
313.943
313.835
316.059
316.02
315.906
315.797
315.685
315.569
315.449
315.325
315.201
315.082
314.969
314.864
314.767
314.677
314.592
314.509
314.426
314.342
314.256
314.168
314.078
313.986
313.89
313.792
313.69
315.881
315.839
315.729
315.622
315.512
315.398
315.279
315.155
315.031
314.909
314.795
314.689
314.592
314.502
314.416
314.334
314.253
314.17
314.087
314.002
313.916
313.827
313.736
313.643
313.546
315.708
315.663
315.557
315.454
315.347
315.234
315.116
314.992
314.867
314.744
314.628
314.521
314.423
314.332
314.246
314.164
314.084
314.003
313.922
313.84
313.757
313.673
313.587
313.498
313.407
315.542
315.495
315.394
315.295
315.19
315.081
314.963
314.839
314.713
314.589
314.472
314.363
314.263
314.171
314.085
314.004
313.924
313.845
313.766
313.687
313.607
313.527
313.445
313.361
313.275
315.388
315.34
315.245
315.149
315.048
314.94
314.824
314.7
314.573
314.448
314.329
314.219
314.117
314.025
313.938
313.856
313.777
313.699
313.622
313.546
313.47
313.393
313.316
313.237
313.157
315.249
315.201
315.112
315.02
314.923
314.818
314.703
314.579
314.452
314.326
314.205
314.093
313.991
313.897
313.811
313.729
313.65
313.574
313.499
313.425
313.352
313.279
313.206
313.132
313.057
315.128
315.08
314.998
314.911
314.819
314.716
314.603
314.48
314.353
314.226
314.105
313.992
313.889
313.795
313.709
313.628
313.55
313.475
313.402
313.331
313.261
313.192
313.123
313.054
312.984
315.026
314.98
314.906
314.826
314.738
314.639
314.529
314.408
314.281
314.154
314.033
313.921
313.818
313.725
313.639
313.559
313.484
313.41
313.34
313.272
313.206
313.141
313.076
313.011
312.947
314.945
314.901
314.837
314.764
314.684
314.589
314.482
314.364
314.239
314.114
313.995
313.883
313.783
313.691
313.608
313.53
313.457
313.387
313.32
313.255
313.193
313.132
313.072
313.011
312.951
314.881
314.842
314.789
314.727
314.654
314.566
314.464
314.349
314.228
314.107
313.99
313.883
313.786
313.698
313.618
313.545
313.475
313.409
313.346
313.286
313.228
313.172
313.116
313.06
313.005
314.835
314.801
314.762
314.711
314.649
314.568
314.472
314.362
314.246
314.13
314.02
313.918
313.827
313.745
313.671
313.602
313.538
313.477
313.419
313.364
313.312
313.261
313.21
313.158
313.107
314.798
314.772
314.747
314.711
314.659
314.588
314.498
314.396
314.287
314.179
314.077
313.984
313.9
313.826
313.76
313.699
313.641
313.587
313.535
313.486
313.44
313.394
313.348
313.301
313.255
314.764
314.747
314.737
314.714
314.676
314.614
314.533
314.439
314.339
314.241
314.15
314.067
313.994
313.931
313.874
313.822
313.772
313.726
313.682
313.64
313.6
313.56
313.519
313.477
313.434
314.722
314.713
314.717
314.708
314.682
314.63
314.559
314.474
314.385
314.299
314.22
314.15
314.09
314.038
313.993
313.951
313.912
313.874
313.839
313.805
313.772
313.738
313.703
313.664
313.625
314.657
314.655
314.671
314.674
314.659
314.617
314.554
314.479
314.402
314.329
314.264
314.208
314.162
314.124
314.092
314.062
314.034
314.006
313.979
313.953
313.928
313.9
313.869
313.835
313.799
314.554
314.558
314.581
314.593
314.585
314.551
314.496
314.431
314.365
314.305
314.255
314.214
314.183
314.16
314.141
314.123
314.106
314.088
314.071
314.053
314.034
314.012
313.986
313.955
313.921
314.398
314.404
314.427
314.442
314.439
314.41
314.362
314.305
314.25
314.203
314.166
314.141
314.124
314.115
314.11
314.105
314.098
314.09
314.082
314.072
314.059
314.041
314.019
313.99
313.958
314.178
314.181
314.198
314.209
314.206
314.178
314.135
314.085
314.04
314.004
313.981
313.968
313.965
313.969
313.976
313.982
313.985
313.987
313.986
313.982
313.974
313.961
313.94
313.914
313.882
313.89
313.885
313.889
313.89
313.88
313.852
313.812
313.767
313.729
313.703
313.689
313.689
313.697
313.712
313.729
313.744
313.756
313.764
313.77
313.772
313.768
313.757
313.738
313.712
313.681
313.541
313.525
313.51
313.494
313.477
313.444
313.404
313.363
313.331
313.311
313.307
313.313
313.331
313.354
313.378
313.4
313.418
313.432
313.442
313.447
313.446
313.436
313.417
313.392
313.361
313.151
313.122
313.088
313.055
313.024
312.987
312.947
312.907
312.878
312.864
312.863
312.877
312.898
312.926
312.955
312.981
313.003
313.02
313.033
313.04
313.039
313.03
313.011
312.985
312.956
312.752
312.713
312.661
312.611
312.571
312.528
312.486
312.448
312.42
312.408
312.411
312.425
312.45
312.479
312.509
312.537
312.561
312.58
312.594
312.601
312.6
312.589
312.57
312.545
312.517
312.381
312.336
312.276
312.218
312.168
312.122
312.079
312.041
312.015
312.004
312.006
312.021
312.045
312.073
312.103
312.13
312.153
312.172
312.186
312.193
312.191
312.179
312.159
312.134
312.108
312.072
312.032
311.976
311.915
311.865
311.817
311.775
311.738
311.713
311.701
311.703
311.715
311.736
311.762
311.788
311.813
311.835
311.853
311.865
311.871
311.867
311.854
311.834
311.812
311.788
311.848
311.821
311.78
311.729
311.681
311.636
311.596
311.561
311.536
311.523
311.523
311.533
311.55
311.571
311.594
311.616
311.636
311.652
311.662
311.666
311.662
311.649
311.631
311.61
311.59
311.711
311.702
311.684
311.649
311.609
311.568
311.531
311.498
311.474
311.46
311.458
311.464
311.477
311.495
311.514
311.533
311.55
311.563
311.573
311.575
311.57
311.558
311.542
311.524
311.506
311.643
311.648
311.653
311.635
311.606
311.57
311.536
311.506
311.483
311.469
311.463
311.467
311.475
311.489
311.504
311.52
311.534
311.546
311.553
311.554
311.549
311.538
311.524
311.508
311.492
311.614
311.624
311.641
311.635
311.615
311.583
311.552
311.525
311.503
311.488
311.481
311.481
311.487
311.496
311.508
311.521
311.533
311.542
311.547
311.547
311.541
311.531
311.518
311.505
311.49
311.595
311.601
311.614
311.613
311.598
311.571
311.543
311.518
311.497
311.482
311.473
311.47
311.472
311.478
311.486
311.496
311.505
311.512
311.515
311.513
311.507
311.498
311.487
311.475
311.461
311.573
311.569
311.571
311.565
311.554
311.531
311.507
311.485
311.465
311.45
311.439
311.433
311.431
311.433
311.438
311.444
311.449
311.454
311.455
311.452
311.445
311.436
311.425
311.414
311.401
311.551
311.54
311.531
311.519
311.509
311.49
311.47
311.45
311.432
311.417
311.405
311.396
311.391
311.389
311.39
311.392
311.394
311.395
311.394
311.39
311.382
311.372
311.361
311.35
311.337
311.536
311.523
311.511
311.496
311.486
311.47
311.453
311.436
311.419
311.404
311.39
311.38
311.372
311.367
311.364
311.362
311.361
311.359
311.356
311.349
311.34
311.329
311.318
311.307
311.295
311.531
311.52
311.512
311.496
311.484
311.471
311.455
311.439
311.423
311.408
311.394
311.382
311.372
311.364
311.358
311.353
311.349
311.344
311.338
311.329
311.319
311.307
311.296
311.286
311.273
311.534
311.524
311.52
311.505
311.493
311.478
311.464
311.448
311.432
311.416
311.402
311.389
311.378
311.368
311.359
311.351
311.344
311.337
311.328
311.318
311.306
311.295
311.285
311.274
311.26
311.547
311.535
311.532
311.517
311.501
311.487
311.471
311.455
311.438
311.423
311.408
311.394
311.381
311.37
311.36
311.35
311.341
311.332
311.322
311.311
311.299
311.288
311.278
311.266
311.249
311.592
311.56
311.548
311.528
311.51
311.492
311.476
311.459
311.443
311.427
311.412
311.398
311.384
311.372
311.361
311.351
311.341
311.33
311.319
311.307
311.296
311.285
311.274
311.26
311.243
311.671
311.594
311.557
311.533
311.513
311.495
311.478
311.462
311.445
311.43
311.414
311.4
311.386
311.373
311.362
311.351
311.34
311.33
311.318
311.307
311.295
311.284
311.272
311.257
311.239
321.38
321.382
321.385
321.39
321.394
321.4
321.404
321.409
321.414
321.424
321.439
321.463
321.492
321.529
321.567
321.604
321.63
321.64
321.631
321.608
321.578
321.547
321.521
321.506
321.501
321.379
321.382
321.387
321.39
321.388
321.386
321.385
321.384
321.385
321.39
321.4
321.416
321.437
321.465
321.497
321.53
321.557
321.574
321.578
321.567
321.544
321.516
321.496
321.484
321.481
321.363
321.364
321.361
321.355
321.346
321.338
321.333
321.332
321.333
321.336
321.34
321.347
321.358
321.376
321.399
321.426
321.452
321.474
321.488
321.493
321.487
321.475
321.461
321.45
321.445
321.319
321.313
321.302
321.291
321.28
321.272
321.268
321.267
321.266
321.264
321.26
321.255
321.254
321.26
321.274
321.295
321.321
321.347
321.371
321.39
321.403
321.41
321.41
321.404
321.394
321.256
321.246
321.229
321.219
321.21
321.203
321.198
321.194
321.187
321.175
321.157
321.138
321.123
321.117
321.123
321.14
321.164
321.194
321.225
321.257
321.288
321.316
321.336
321.341
321.332
321.194
321.179
321.157
321.147
321.139
321.131
321.123
321.11
321.09
321.062
321.029
320.995
320.967
320.95
320.947
320.958
320.98
321.012
321.05
321.092
321.138
321.187
321.233
321.26
321.263
321.143
321.119
321.088
321.077
321.069
321.057
321.041
321.015
320.978
320.932
320.88
320.83
320.789
320.761
320.749
320.753
320.771
320.804
320.846
320.897
320.955
321.022
321.094
321.155
321.175
321.104
321.071
321.025
321.012
321.003
320.985
320.957
320.915
320.858
320.79
320.717
320.648
320.59
320.55
320.528
320.527
320.543
320.577
320.623
320.678
320.743
320.819
320.908
320.994
321.039
321.071
321.032
320.965
320.952
320.946
320.921
320.879
320.815
320.733
320.638
320.539
320.445
320.366
320.31
320.281
320.277
320.296
320.332
320.382
320.441
320.508
320.588
320.679
320.772
320.83
321.012
320.976
320.899
320.893
320.894
320.864
320.804
320.717
320.605
320.476
320.341
320.214
320.107
320.033
319.996
319.993
320.015
320.057
320.113
320.179
320.253
320.334
320.423
320.508
320.565
320.898
320.86
320.806
320.832
320.849
320.814
320.736
320.621
320.475
320.304
320.123
319.952
319.808
319.709
319.66
319.653
319.677
319.726
319.793
319.874
319.961
320.053
320.142
320.22
320.269
320.753
320.708
320.692
320.774
320.816
320.779
320.68
320.535
320.348
320.128
319.89
319.661
319.467
319.33
319.258
319.238
319.257
319.31
319.393
319.497
319.612
319.724
319.827
319.904
319.95
320.598
320.564
320.578
320.728
320.805
320.768
320.649
320.469
320.238
319.96
319.653
319.348
319.082
318.887
318.774
318.727
318.734
318.791
318.895
319.033
319.186
319.337
319.467
319.558
319.612
320.446
320.447
320.483
320.702
320.822
320.792
320.658
320.447
320.169
319.828
319.438
319.037
318.674
318.39
318.204
318.109
318.096
318.163
318.302
318.489
318.697
318.9
319.077
319.197
319.274
320.345
320.37
320.443
320.714
320.873
320.857
320.717
320.483
320.168
319.768
319.294
318.794
318.31
317.89
317.574
317.397
317.363
317.458
317.659
317.921
318.202
318.473
318.706
318.868
318.98
320.264
320.314
320.45
320.76
320.953
320.964
320.832
320.588
320.244
319.802
319.26
318.655
318.026
317.438
316.952
316.675
316.63
316.774
317.063
317.424
317.796
318.144
318.442
318.648
318.805
320.237
320.285
320.44
320.746
320.987
321.075
320.996
320.754
320.386
319.92
319.35
318.685
317.922
317.183
316.562
316.189
316.101
316.275
316.646
317.112
317.587
318.018
318.381
318.633
318.827
320.286
320.281
320.422
320.675
320.917
321.111
321.14
320.932
320.547
320.079
319.543
318.905
318.087
317.215
316.424
315.925
315.798
316.005
316.455
317.031
317.617
318.147
318.583
318.882
319.109
320.12
320.065
320.271
320.576
320.783
321.035
321.193
321.023
320.587
320.074
319.577
319.036
318.291
317.374
316.466
315.861
315.692
315.921
316.454
317.152
317.868
318.516
319.046
319.415
319.668
319.62
319.593
319.908
320.334
320.588
320.825
321.054
320.932
320.451
319.867
319.374
318.918
318.291
317.427
316.53
315.935
315.783
316.056
316.675
317.483
318.325
319.099
319.746
320.203
320.49
319.678
319.528
319.864
320.178
320.403
320.641
320.845
320.73
320.234
319.61
319.068
318.604
318.044
317.321
316.595
316.144
316.091
316.444
317.139
318.032
318.97
319.851
320.606
321.167
321.506
320.664
320.282
320.237
320.176
320.166
320.328
320.533
320.472
320.005
319.368
318.785
318.309
317.832
317.3
316.806
316.54
316.599
317.013
317.742
318.665
319.652
320.604
321.451
322.106
322.517
321.347
320.901
320.568
320.226
319.983
319.976
320.107
320.085
319.753
319.242
318.739
318.315
317.914
317.505
317.152
316.982
317.082
317.505
318.224
319.142
320.146
321.148
322.071
322.819
323.286
321.46
321.052
320.647
320.214
319.852
319.689
319.702
319.727
319.611
319.356
319.033
318.67
318.274
317.864
317.514
317.334
317.41
317.794
318.465
319.344
320.337
321.368
322.364
323.206
323.731
321.382
321.013
320.634
320.262
319.937
319.732
319.68
319.721
319.728
319.617
319.366
318.988
318.526
318.054
317.651
317.419
317.442
317.763
318.361
319.176
320.134
321.175
322.231
323.19
323.812
321.285
320.986
320.699
320.443
320.224
320.062
319.98
319.952
319.897
319.731
319.418
318.968
318.443
317.919
317.484
317.215
317.179
317.409
317.899
318.602
319.462
320.45
321.529
322.585
323.414
321.189
320.948
320.72
320.515
320.334
320.174
320.036
319.896
319.716
319.445
319.057
318.577
318.046
317.529
317.088
316.783
316.662
316.762
317.079
317.581
318.231
319.023
319.94
320.896
321.591
321.063
320.848
320.634
320.425
320.22
320.014
319.803
319.57
319.298
318.964
318.557
318.087
317.583
317.081
316.619
316.238
315.978
315.869
315.921
316.097
316.356
316.705
317.132
317.605
317.78
320.902
320.698
320.486
320.269
320.046
319.813
319.564
319.289
318.978
318.618
318.201
317.732
317.22
316.682
316.141
315.623
315.154
314.759
314.433
314.124
313.738
313.23
312.369
311.136
307.604
320.716
320.517
320.306
320.085
319.854
319.608
319.34
319.044
318.708
318.323
317.884
317.382
316.826
316.215
315.559
314.868
314.153
313.412
312.617
311.672
310.357
308.542
305.394
301.94
287.197
320.509
320.312
320.1
319.874
319.632
319.371
319.083
318.761
318.396
317.98
317.502
316.962
316.346
315.652
314.869
313.993
313.01
311.893
310.56
308.855
306.328
302.55
294.764
281.638
232.667
320.284
320.087
319.872
319.639
319.386
319.11
318.803
318.457
318.065
317.616
317.104
316.515
315.837
315.051
314.135
313.066
311.812
310.313
308.441
305.968
302.335
296.834
286.993
271.038
240.88
320.044
319.845
319.625
319.385
319.122
318.83
318.505
318.138
317.719
317.24
316.688
316.052
315.308
314.429
313.38
312.125
310.614
308.767
306.428
303.334
299.008
292.775
283.626
270.191
253.755
319.792
319.589
319.364
319.116
318.842
318.537
318.195
317.806
317.363
316.854
316.267
315.581
314.773
313.805
312.633
311.208
309.468
307.321
304.604
301.045
296.235
289.605
280.501
267.867
251.817
319.53
319.323
319.092
318.836
318.552
318.234
317.876
317.469
317.002
316.466
315.843
315.115
314.247
313.198
311.917
310.346
308.414
306.019
302.993
299.07
293.863
286.862
277.493
265.032
249.242
319.261
319.049
318.812
318.549
318.255
317.925
317.553
317.129
316.642
316.081
315.429
314.66
313.742
312.625
311.254
309.564
307.478
304.887
301.62
297.407
291.881
284.567
274.968
262.503
246.929
318.987
318.77
318.528
318.257
317.955
317.615
317.23
316.791
316.288
315.706
315.027
314.228
313.268
312.1
310.66
308.882
306.684
303.948
300.498
296.062
290.267
282.638
272.677
259.749
243.655
318.711
318.489
318.241
317.964
317.654
317.306
316.911
316.461
315.944
315.346
314.649
313.826
312.838
311.635
310.151
308.318
306.047
303.22
299.644
295.042
289.02
281.061
270.627
256.862
239.807
318.434
318.208
317.955
317.673
317.357
317.002
316.6
316.142
315.615
315.007
314.298
313.462
312.46
311.24
309.739
307.885
305.587
302.72
299.076
294.368
288.119
279.796
268.652
253.475
234.675
318.158
317.929
317.672
317.386
317.065
316.706
316.299
315.836
315.305
314.693
313.98
313.141
312.139
310.922
309.432
307.595
305.321
302.483
298.854
294.131
287.684
278.967
266.324
248.828
224.854
317.886
317.654
317.394
317.105
316.782
316.42
316.012
315.548
315.017
314.406
313.697
312.867
311.878
310.687
309.233
307.453
305.26
302.532
299.058
294.522
288.232
279.537
265.405
245.389
207.911
317.619
317.384
317.123
316.832
316.509
316.147
315.74
315.279
314.753
314.149
313.452
312.64
311.68
310.531
309.14
307.452
305.392
302.86
299.677
295.583
290.054
282.507
270.336
252.705
204.093
317.357
317.122
316.86
316.57
316.248
315.888
315.485
315.03
314.513
313.922
313.245
312.46
311.541
310.449
309.142
307.572
305.684
303.397
300.593
297.083
292.58
286.757
278.849
269.28
250.195
317.103
316.867
316.606
316.318
315.999
315.645
315.248
314.803
314.298
313.726
313.073
312.324
311.454
310.431
309.221
307.786
306.086
304.073
301.664
298.754
295.2
290.865
285.573
279.409
271.791
316.856
316.622
316.363
316.078
315.764
315.416
315.029
314.596
314.108
313.558
312.935
312.227
311.412
310.466
309.358
308.064
306.559
304.81
302.781
300.414
297.665
294.53
291.09
287.626
284.682
316.619
316.387
316.131
315.851
315.543
315.204
314.828
314.41
313.942
313.417
312.827
312.164
311.408
310.54
309.537
308.382
307.06
305.561
303.864
301.955
299.835
297.552
295.221
293.09
291.501
316.39
316.161
315.91
315.636
315.336
315.007
314.645
314.243
313.796
313.299
312.746
312.129
311.434
310.644
309.742
308.717
307.565
306.283
304.872
303.334
301.693
300.013
298.412
297.064
296.187
316.171
315.946
315.7
315.433
315.143
314.826
314.478
314.094
313.671
313.203
312.686
312.117
311.481
310.766
309.959
309.055
308.053
306.961
305.785
304.539
303.257
301.996
300.852
299.946
299.385
315.962
315.741
315.502
315.243
314.962
314.658
314.326
313.962
313.562
313.124
312.645
312.121
311.543
310.899
310.18
309.383
308.513
307.58
306.597
305.58