/*--------------------------------*- C++ -*----------------------------------*\
  =========                 |
  \\      /  F ield         | OpenFOAM: The Open Source CFD Toolbox
   \\    /   O peration     | Website:  https://openfoam.org
    \\  /    A nd           | Version:  13
     \\/     M anipulation  |
\*---------------------------------------------------------------------------*/
FoamFile
{
    format      ascii;
    class       surfaceScalarField;
    location    "2";
    object      phi;
}
// * * * * * * * * * * * * * * * * * * * * * * * * * * * * * * * * * * * * * //

dimensions      [0 3 -1 0 0 0 0];

internalField   nonuniform List<scalar> 
12590
(
7.62459e-09
-7.51317e-09
1.83839e-08
-7.69763e-09
2.39517e-08
-6.37565e-09
3.15095e-08
-4.37569e-09
3.3096e-08
-2.92223e-09
3.76202e-08
-1.24651e-09
3.63395e-08
-3.69499e-10
3.77407e-08
1.55609e-09
3.31269e-08
3.29458e-09
3.05916e-08
5.19049e-09
2.35365e-08
6.13486e-09
1.88073e-08
7.20041e-09
1.09638e-08
7.6404e-09
5.18634e-09
7.98413e-09
-2.26157e-09
7.81427e-09
-8.02165e-09
7.72873e-09
-1.47665e-08
7.52633e-09
-2.0196e-08
7.23786e-09
-2.56941e-08
6.54621e-09
-2.94376e-08
5.10728e-09
-3.05045e-08
2.31075e-09
-2.77473e-08
-2.27698e-09
-1.85748e-08
-7.63144e-09
-6.27934e-09
-1.19862e-08
-6.0442e-09
-2.15787e-09
-4.33087e-09
-7.37288e-09
-1.00478e-09
-1.40906e-08
8.72971e-10
-1.81185e-08
1.06986e-09
-2.10966e-08
3.30029e-10
-2.09767e-08
-1.03353e-10
-2.13829e-08
3.24991e-10
-2.07253e-08
2.28312e-09
-2.23222e-08
4.99226e-09
-2.33703e-08
7.9196e-09
-2.60554e-08
9.34059e-09
-2.7158e-08
1.0167e-08
-2.88423e-08
1.02034e-08
-2.90717e-08
1.03155e-08
-2.98582e-08
9.80933e-09
-2.93343e-08
9.34174e-09
-2.89997e-08
8.66413e-09
-2.77084e-08
7.94937e-09
-2.63022e-08
6.67901e-09
-2.39294e-08
4.33601e-09
-2.05024e-08
2.3086e-10
-1.48904e-08
-6.1427e-09
-7.92924e-09
-1.47731e-08
9.60154e-10
-1.95776e-08
-4.99602e-09
-5.52648e-09
2.01277e-09
-1.39678e-08
9.03896e-09
-2.14758e-08
9.13245e-09
-2.48001e-08
5.6759e-09
-2.50196e-08
1.38552e-09
-2.21889e-08
-1.5448e-09
-1.93527e-08
-1.84558e-09
-1.63533e-08
5.23046e-10
-1.48343e-08
4.86054e-09
-1.47368e-08
9.1683e-09
-1.54414e-08
1.18055e-08
-1.53858e-08
1.19327e-08
-1.4186e-08
1.13209e-08
-1.26083e-08
1.07323e-08
-1.08461e-08
1.05542e-08
-9.05161e-09
9.69662e-09
-7.10055e-09
9.06285e-09
-5.49346e-09
8.40003e-09
-4.14323e-09
7.32768e-09
-3.00414e-09
4.89358e-09
-1.43926e-09
4.30224e-10
-6.38709e-10
-6.52561e-09
2.6231e-09
-1.52744e-08
4.12916e-09
-2.11957e-08
-4.07903e-10
-6.37552e-09
9.73334e-09
-1.53119e-08
1.93391e-08
-2.15743e-08
1.64937e-08
-2.28267e-08
8.65675e-09
-2.07278e-08
2.98724e-10
-1.49949e-08
-5.71894e-09
-8.06009e-09
-7.56599e-09
2.82948e-10
-5.84419e-09
7.5007e-09
-1.35131e-09
1.46525e-08
4.72696e-09
1.93562e-08
9.0246e-09
2.50412e-08
9.38412e-09
3.03568e-08
8.16413e-09
3.63861e-08
8.02723e-09
3.99496e-08
9.34205e-09
4.17205e-08
1.1012e-08
4.1043e-08
1.20418e-08
3.93566e-08
1.27213e-08
3.59335e-08
1.30693e-08
3.08184e-08
1.23137e-08
2.45616e-08
8.59837e-09
1.95153e-08
1.84503e-09
1.27011e-08
-9.33908e-09
8.95607e-09
-1.51207e-08
8.70876e-09
-7.83563e-09
1.85959e-08
-1.75479e-08
3.10451e-08
-2.4786e-08
2.49013e-08
-2.78652e-08
1.35713e-08
-2.75879e-08
1.34749e-09
-2.2108e-08
-9.21476e-09
-1.40279e-08
-1.47628e-08
-3.03009e-09
-1.49183e-08
7.72225e-09
-1.03717e-08
1.6348e-08
-1.56745e-09
1.91257e-08
8.16058e-09
2.07434e-08
1.06976e-08
2.30863e-08
7.91209e-09
2.70444e-08
6.57825e-09
3.10308e-08
7.40966e-09
3.49897e-08
9.37491e-09
3.75189e-08
1.15401e-08
3.89655e-08
1.35967e-08
3.87996e-08
1.52522e-08
3.75361e-08
1.56422e-08
3.44556e-08
1.38351e-08
2.84504e-08
8.0962e-09
2.2203e-08
9.32768e-10
1.15678e-08
-4.78472e-09
2.10052e-08
-9.81774e-09
3.01488e-08
-2.21011e-08
4.48669e-08
-3.14876e-08
3.58422e-08
-3.79017e-08
2.20079e-08
-4.13528e-08
6.19225e-09
-3.91528e-08
-9.83484e-09
-3.27739e-08
-1.96639e-08
-2.3095e-08
-2.27866e-08
-1.26243e-08
-1.98368e-08
-1.07658e-09
-1.06937e-08
7.26104e-09
2.03279e-09
1.3618e-08
6.89461e-09
2.02679e-08
3.34296e-09
2.77912e-08
1.36333e-09
3.47345e-08
2.41834e-09
4.09801e-08
5.27281e-09
4.57031e-08
8.81325e-09
4.86611e-08
1.26661e-08
4.94822e-08
1.63989e-08
4.79863e-08
1.90597e-08
4.41316e-08
1.93625e-08
3.84947e-08
1.69644e-08
2.59761e-08
1.18174e-08
1.34133e-08
1.1215e-08
3.45772e-08
-1.41882e-08
4.56674e-08
-3.0112e-08
6.30181e-08
-4.30743e-08
5.02598e-08
-5.22309e-08
3.31583e-08
-5.75175e-08
1.32785e-08
-5.70688e-08
-8.32489e-09
-5.25712e-08
-2.31123e-08
-4.41362e-08
-2.96493e-08
-3.3318e-08
-2.8819e-08
-2.08035e-08
-2.13137e-08
-8.33904e-09
-8.42258e-09
3.7473e-09
-2.40038e-09
1.55157e-08
-6.27301e-09
2.74783e-08
-8.30184e-09
3.82354e-08
-6.31761e-09
4.74531e-08
-1.81696e-09
5.43899e-08
3.83494e-09
5.88221e-08
1.0219e-08
6.02368e-08
1.69051e-08
5.86208e-08
2.25721e-08
5.40312e-08
2.59761e-08
4.43247e-08
2.67503e-08
3.30002e-08
2.90038e-08
1.15824e-08
3.18587e-08
4.74759e-08
-2.08839e-08
6.86057e-08
-4.37183e-08
8.74031e-08
-6.1668e-08
7.00444e-08
-7.36304e-08
4.72975e-08
-7.92352e-08
2.07083e-08
-7.86025e-08
-7.25326e-09
-7.31595e-08
-2.67823e-08
-6.39335e-08
-3.712e-08
-5.20655e-08
-3.95094e-08
-3.70862e-08
-3.39656e-08
-2.05776e-08
-2.25077e-08
-3.38189e-09
-1.71096e-08
1.3362e-08
-2.07684e-08
2.92079e-08
-2.18616e-08
4.32092e-08
-1.82534e-08
5.49166e-08
-1.14371e-08
6.37919e-08
-3.00183e-09
6.9384e-08
6.66301e-09
7.14131e-08
1.71925e-08
6.93479e-08
2.69338e-08
6.2894e-08
3.46673e-08
5.38247e-08
4.06109e-08
3.56901e-08
4.4588e-08
1.56581e-08
5.79273e-08
6.31284e-08
-3.03456e-08
1.00427e-07
-6.10312e-08
1.20322e-07
-8.56659e-08
9.63081e-08
-1.01223e-07
6.50212e-08
-1.0644e-07
2.81883e-08
-1.03748e-07
-7.79138e-09
-9.58284e-08
-3.33874e-08
-8.34442e-08
-4.77857e-08
-6.771e-08
-5.30742e-08
-4.9328e-08
-5.03988e-08
-2.82934e-08
-4.13699e-08
-5.42725e-09
-3.73184e-08
1.60434e-08
-4.00817e-08
3.50865e-08
-3.87418e-08
5.14543e-08
-3.2596e-08
6.48971e-08
-2.28175e-08
7.5003e-08
-1.10084e-08
8.13912e-08
2.55387e-09
8.32559e-08
1.77144e-08
7.998e-08
3.25928e-08
7.18077e-08
4.55339e-08
5.79147e-08
5.4333e-08
4.40308e-08
6.63639e-08
2.09676e-08
7.86973e-08
8.6076e-08
-4.07595e-08
1.43214e-07
-8.12846e-08
1.62274e-07
-1.12807e-07
1.29827e-07
-1.31963e-07
8.64653e-08
-1.36675e-07
3.51177e-08
-1.31274e-07
-1.13242e-08
-1.18716e-07
-4.39062e-08
-1.01194e-07
-6.33774e-08
-8.04333e-08
-7.23688e-08
-5.61685e-08
-7.22304e-08
-2.869e-08
-6.64273e-08
-1.95214e-10
-6.36418e-08
2.51527e-08
-6.34438e-08
4.66338e-08
-5.8236e-08
6.44927e-08
-4.85974e-08
7.88767e-08
-3.52152e-08
8.94226e-08
-1.9536e-08
9.56345e-08
-1.55021e-09
9.65397e-08
1.90352e-08
9.00839e-08
4.1248e-08
7.9213e-08
5.83716e-08
6.49759e-08
7.2617e-08
4.26989e-08
8.43478e-08
2.74077e-08
1.01606e-07
1.12784e-07
-5.23612e-08
1.96851e-07
-1.01933e-07
2.1389e-07
-1.40444e-07
1.69977e-07
-1.62901e-07
1.11232e-07
-1.67067e-07
4.18354e-08
-1.57771e-07
-1.83974e-08
-1.3983e-07
-6.03335e-08
-1.15707e-07
-8.56113e-08
-8.75339e-08
-9.81746e-08
-5.6435e-08
-1.01381e-07
-2.17183e-08
-9.91649e-08
1.2474e-08
-9.57388e-08
4.09646e-08
-9.02017e-08
6.44385e-08
-7.99603e-08
8.33245e-08
-6.57751e-08
9.80057e-08
-4.81006e-08
1.0818e-07
-2.78963e-08
1.13397e-07
-4.85433e-09
1.12774e-07
2.17172e-08
1.0363e-07
5.24846e-08
9.15034e-08
7.2472e-08
7.22857e-08
9.11158e-08
5.21117e-08
1.12847e-07
2.38059e-08
1.25961e-07
1.39531e-07
-6.26034e-08
2.61233e-07
-1.21169e-07
2.7371e-07
-1.65295e-07
2.16153e-07
-1.9072e-07
1.39053e-07
-1.94742e-07
4.84281e-08
-1.80874e-07
-3.02484e-08
-1.55647e-07
-8.33278e-08
-1.23463e-07
-1.15725e-07
-8.70934e-08
-1.32889e-07
-4.7118e-08
-1.39061e-07
-5.91926e-09
-1.38349e-07
3.18631e-08
-1.31905e-07
6.32112e-08
-1.1996e-07
8.85819e-08
-1.03758e-07
1.0839e-07
-8.40214e-08
1.23043e-07
-6.1128e-08
1.32326e-07
-3.54349e-08
1.35772e-07
-6.42396e-09
1.32941e-07
2.68185e-08
1.23832e-07
6.38671e-08
1.10196e-07
8.80477e-08
9.13108e-08
1.14556e-07
6.06979e-08
1.3855e-07
3.01913e-08
1.65402e-07
1.6876e-07
-7.07154e-08
3.33247e-07
-1.36143e-07
3.41203e-07
-1.84924e-07
2.66915e-07
-2.129e-07
1.69922e-07
-2.16974e-07
5.58889e-08
-1.97268e-07
-4.73173e-08
-1.6394e-07
-1.14593e-07
-1.22375e-07
-1.55079e-07
-7.59807e-08
-1.76729e-07
-2.75008e-08
-1.85594e-07
1.82767e-08
-1.82385e-07
5.82182e-08
-1.70133e-07
9.17506e-08
-1.51959e-07
1.18912e-07
-1.29406e-07
1.39791e-07
-1.0336e-07
1.54573e-07
-7.43042e-08
1.62978e-07
-4.20811e-08
1.64548e-07
-5.95578e-09
1.58611e-07
3.49699e-08
1.50693e-07
7.40196e-08
1.3623e-07
1.04748e-07
1.11624e-07
1.3838e-07
8.14694e-08
1.77579e-07
3.81322e-08
2.04281e-07
2.10256e-07
-7.52523e-08
4.10681e-07
-1.46448e-07
4.14497e-07
-1.9773e-07
3.21183e-07
-2.27551e-07
2.03675e-07
-2.31982e-07
6.44358e-08
-2.05536e-07
-7.04306e-08
-1.62377e-07
-1.54922e-07
-1.10157e-07
-2.04379e-07
-5.46181e-08
-2.30263e-07
-1.49498e-10
-2.37525e-07
4.85009e-08
-2.29297e-07
9.08061e-08
-2.10495e-07
1.26214e-07
-1.85883e-07
1.55234e-07
-1.56519e-07
1.77378e-07
-1.24045e-07
1.93002e-07
-8.79769e-08
2.01268e-07
-4.86751e-08
2.01891e-07
-4.36326e-09
1.93401e-07
4.53972e-08
1.85042e-07
8.45852e-08
1.68545e-07
1.22754e-07
1.43644e-07
1.67773e-07
1.00866e-07
2.15225e-07
5.39323e-08
2.60326e-07
2.63565e-07
-7.49972e-08
4.88444e-07
-1.48996e-07
4.91469e-07
-2.01805e-07
3.7798e-07
-2.34313e-07
2.40629e-07
-2.38277e-07
7.50856e-08
-2.037e-07
-1.0187e-07
-1.49222e-07
-2.05465e-07
-8.69743e-08
-2.64734e-07
-2.278e-08
-2.90845e-07
3.47393e-08
-2.93864e-07
8.57118e-08
-2.77413e-07
1.29118e-07
-2.52732e-07
1.66585e-07
-2.20585e-07
1.96805e-07
-1.85463e-07
2.21161e-07
-1.45696e-07
2.37867e-07
-1.033e-07
2.4778e-07
-5.58192e-08
2.48556e-07
-3.60788e-09
2.40189e-07
5.66857e-08
2.29349e-07
9.69812e-08
2.11354e-07
1.43814e-07
1.79281e-07
1.98875e-07
1.36211e-07
2.67782e-07
7.0979e-08
3.22165e-07
3.39142e-07
-6.9785e-08
5.60093e-07
-1.4303e-07
5.67868e-07
-1.96737e-07
4.34337e-07
-2.293e-07
2.79407e-07
-2.33458e-07
8.00608e-08
-1.87716e-07
-1.41737e-07
-1.23324e-07
-2.70571e-07
-4.92768e-08
-3.33004e-07
1.68066e-08
-3.58489e-07
7.77427e-08
-3.49796e-07
1.28103e-07
-3.28557e-07
1.73956e-07
-2.94312e-07
2.11124e-07
-2.57616e-07
2.44207e-07
-2.14714e-07
2.69428e-07
-1.70041e-07
2.89579e-07
-1.19895e-07
3.00983e-07
-6.59233e-08
3.05361e-07
-4.52912e-09
2.98741e-07
6.53497e-08
2.86564e-07
1.12604e-07
2.63481e-07
1.68949e-07
2.29951e-07
2.38394e-07
1.71933e-07
3.22651e-07
9.78009e-08
4.07377e-07
4.40999e-07
-6.24947e-08
6.24246e-07
-1.30446e-07
6.35635e-07
-1.85342e-07
4.91502e-07
-2.24383e-07
3.13643e-07
-2.13477e-07
7.80169e-08
-1.60112e-07
-2.01081e-07
-7.89263e-08
-3.43963e-07
-4.99479e-09
-4.1322e-07
6.78661e-08
-4.23898e-07
1.24492e-07
-4.1084e-07
1.78801e-07
-3.76917e-07
2.21531e-07
-3.3934e-07
2.6219e-07
-2.93774e-07
2.94655e-07
-2.47258e-07
3.237e-07
-1.95677e-07
3.45625e-07
-1.40511e-07
3.61696e-07
-7.95054e-08
3.70462e-07
-1.03728e-08
3.69576e-07
6.79218e-08
3.5728e-07
1.29225e-07
3.30924e-07
1.97964e-07
2.90156e-07
2.82882e-07
2.31115e-07
3.90831e-07
1.4671e-07
5.00409e-07
5.88605e-07
-5.2634e-08
6.74498e-07
-1.13147e-07
6.95477e-07
-1.71118e-07
5.44068e-07
-2.03378e-07
3.50837e-07
-1.85579e-07
4.85812e-08
-1.08143e-07
-2.72358e-07
-2.6908e-08
-4.32884e-07
5.50663e-08
-4.89391e-07
1.19654e-07
-4.94087e-07
1.80737e-07
-4.66683e-07
2.29265e-07
-4.28859e-07
2.75895e-07
-3.81806e-07
3.14674e-07
-3.33552e-07
3.5067e-07
-2.81113e-07
3.81366e-07
-2.25702e-07
4.07146e-07
-1.65716e-07
4.28591e-07
-9.85973e-08
4.41826e-07
-2.49116e-08
4.51629e-07
6.29458e-08
4.40759e-07
1.38533e-07
4.17441e-07
2.28712e-07
3.69199e-07
3.31856e-07
2.95662e-07
4.72659e-07
1.74727e-07
6.17405e-07
7.65398e-07
-3.88151e-08
7.13645e-07
-8.96442e-08
7.44836e-07
-1.39351e-07
5.95066e-07
-1.74759e-07
3.79343e-07
-1.27147e-07
5.84222e-09
-4.46157e-08
-3.59049e-07
4.09999e-08
-5.17055e-07
1.14202e-07
-5.65418e-07
1.79201e-07
-5.56625e-07
2.33679e-07
-5.22468e-07
2.84133e-07
-4.75917e-07
3.28343e-07
-4.26704e-07
3.70147e-07
-3.73929e-07
4.08017e-07
-3.1908e-07
4.42186e-07
-2.60743e-07
4.73441e-07
-1.96939e-07
4.9878e-07
-1.26898e-07
5.21507e-07
-4.66367e-08
5.35722e-07
4.32731e-08
5.406e-07
1.36515e-07
5.24456e-07
2.3916e-07
4.933e-07
3.66586e-07
4.15733e-07
5.37589e-07
3.18273e-07
7.1848e-07
1.08053e-06
-2.90148e-08
7.43728e-07
-6.2541e-08
7.79694e-07
-9.79712e-08
6.29893e-07
-1.19746e-07
4.06408e-07
-5.50755e-08
-5.96421e-08
3.00111e-08
-4.43128e-07
1.08596e-07
-5.9552e-07
1.76918e-07
-6.32305e-07
2.35153e-07
-6.13742e-07
2.87572e-07
-5.7152e-07
3.35009e-07
-5.22492e-07
3.81223e-07
-4.69885e-07
4.24639e-07
-4.16692e-07
4.66029e-07
-3.60829e-07
5.05334e-07
-3.009e-07
5.41645e-07
-2.35552e-07
5.75521e-07
-1.62376e-07
6.04054e-07
-7.96787e-08
6.28297e-07
1.65746e-08
6.40124e-07
1.18576e-07
6.42989e-07
2.33903e-07
6.2294e-07
3.75154e-07
5.67311e-07
5.93995e-07
4.06623e-07
8.71265e-07
1.48796e-06
-8.40024e-09
7.55053e-07
-2.13375e-08
7.94689e-07
-2.93952e-08
6.41864e-07
-5.45677e-08
4.33091e-07
-6.85675e-09
-1.03171e-07
5.01033e-08
-4.98414e-07
1.05784e-07
-6.49171e-07
1.56568e-07
-6.80908e-07
2.04573e-07
-6.58111e-07
2.51046e-07
-6.15336e-07
2.99447e-07
-5.65872e-07
3.48078e-07
-5.16397e-07
3.98488e-07
-4.65087e-07
4.50019e-07
-4.11562e-07
5.03087e-07
-3.54107e-07
5.58019e-07
-2.91169e-07
6.15433e-07
-2.21141e-07
6.76033e-07
-1.41874e-07
7.41214e-07
-5.09148e-08
8.07373e-07
4.99564e-08
8.79464e-07
1.58072e-07
9.67132e-07
2.86094e-07
1.09971e-06
4.55283e-07
1.33162e-06
6.41624e-07
1.02897e-06
1.79016e-06
1.26608e-09
7.56625e-07
-5.01089e-09
8.03701e-07
1.3409e-09
6.38303e-07
-1.31783e-08
4.53716e-07
4.08549e-08
-1.54565e-07
1.004e-07
-5.55309e-07
1.52368e-07
-6.98568e-07
1.98846e-07
-7.24061e-07
2.4333e-07
-6.99144e-07
2.89588e-07
-6.56578e-07
3.37384e-07
-6.10736e-07
3.88537e-07
-5.63307e-07
4.41573e-07
-5.15513e-07
4.9699e-07
-4.65202e-07
5.54945e-07
-4.11009e-07
6.1603e-07
-3.51656e-07
6.81172e-07
-2.85881e-07
7.51904e-07
-2.12432e-07
8.3098e-07
-1.30001e-07
9.18782e-07
-3.8129e-08
1.01848e-06
5.80608e-08
1.1429e-06
1.58742e-07
1.32849e-06
2.72252e-07
1.6147e-06
3.53717e-07
5.71931e-07
2.0729e-06
6.89116e-09
7.53e-07
4.53088e-09
8.08933e-07
1.08298e-08
6.36694e-07
1.0899e-08
4.57942e-07
8.03488e-08
-2.20616e-07
1.42491e-07
-6.14745e-07
1.91666e-07
-7.44745e-07
2.34715e-07
-7.63755e-07
2.77896e-07
-7.37927e-07
3.23451e-07
-6.98601e-07
3.73511e-07
-6.55648e-07
4.26434e-07
-6.1304e-07
4.82862e-07
-5.68873e-07
5.42268e-07
-5.22338e-07
6.05039e-07
-4.72132e-07
6.71894e-07
-4.17199e-07
7.43919e-07
-3.56741e-07
8.22802e-07
-2.90137e-07
9.11027e-07
-2.17056e-07
1.01158e-06
-1.37646e-07
1.12381e-06
-5.4234e-08
1.25486e-06
2.91824e-08
1.41485e-06
1.0998e-07
1.60597e-06
1.6534e-07
2.55576e-07
1.9221e-06
8.62781e-09
7.47852e-07
4.29599e-09
8.16471e-07
4.15636e-09
6.40661e-07
3.05343e-08
4.38849e-07
1.13968e-07
-3.01212e-07
1.7545e-07
-6.73488e-07
2.21539e-07
-7.87859e-07
2.62974e-07
-8.01377e-07
3.05869e-07
-7.77008e-07
3.53495e-07
-7.41246e-07
4.04939e-07
-7.0382e-07
4.60985e-07
-6.6509e-07
5.2047e-07
-6.25319e-07
5.83538e-07
-5.82999e-07
6.50436e-07
-5.37143e-07
7.21924e-07
-4.87085e-07
7.99093e-07
-4.32387e-07
8.83451e-07
-3.72898e-07
9.7681e-07
-3.08869e-07
1.08144e-06
-2.41019e-07
1.19945e-06
-1.70889e-07
1.32975e-06
-1.02076e-07
1.47749e-06
-3.50386e-08
1.62598e-06
1.55632e-08
6.19092e-08
1.82147e-06
5.27614e-09
7.45962e-07
-9.0162e-09
8.33581e-07
-2.96561e-08
6.66957e-07
4.76259e-08
3.68293e-07
1.42335e-07
-3.93501e-07
2.00223e-07
-7.28605e-07
2.43553e-07
-8.28041e-07
2.84542e-07
-8.38741e-07
3.29353e-07
-8.17337e-07
3.78702e-07
-7.8702e-07
4.33379e-07
-7.5398e-07
4.91988e-07
-7.20393e-07
5.54594e-07
-6.84959e-07
6.20918e-07
-6.46926e-07
6.91318e-07
-6.05602e-07
7.66456e-07
-5.60535e-07
8.47317e-07
-5.11614e-07
9.35096e-07
-4.59019e-07
1.0311e-06
-4.0324e-07
1.13679e-06
-3.45215e-07
1.25288e-06
-2.86567e-07
1.38148e-06
-2.28986e-07
1.5214e-06
-1.76558e-07
1.67057e-06
-1.30888e-07
-9.66632e-08
1.8295e-06
-1.93899e-09
7.5195e-07
-2.30199e-08
8.5842e-07
-6.17099e-08
7.09801e-07
7.07722e-08
2.40625e-07
1.63532e-07
-4.83255e-07
2.16016e-07
-7.78764e-07
2.58077e-07
-8.66924e-07
3.00595e-07
-8.77433e-07
3.47691e-07
-8.6063e-07
4.00507e-07
-8.3522e-07
4.57719e-07
-8.07837e-07
5.19395e-07
-7.7866e-07
5.84876e-07
-7.47543e-07
6.54096e-07
-7.13801e-07
7.27334e-07
-6.76915e-07
8.0524e-07
-6.36748e-07
8.88627e-07
-5.93392e-07
9.78442e-07
-5.47206e-07
1.07558e-06
-4.9885e-07
1.18077e-06
-4.49301e-07
1.29513e-06
-3.99622e-07
1.4177e-06
-3.5225e-07
1.55104e-06
-3.07568e-07
1.69048e-06
-2.71046e-07
-2.4126e-07
1.837e-06
-9.77299e-09
7.65621e-07
-2.93023e-08
8.81115e-07
-5.77992e-08
7.42563e-07
8.60497e-08
1.0157e-07
1.70553e-07
-5.66228e-07
2.21891e-07
-8.27319e-07
2.65466e-07
-9.07254e-07
3.10996e-07
-9.19373e-07
3.61977e-07
-9.07193e-07
4.17806e-07
-8.87562e-07
4.78499e-07
-8.64685e-07
5.43116e-07
-8.39979e-07
6.11291e-07
-8.13038e-07
6.83014e-07
-7.83287e-07
7.5859e-07
-7.50624e-07
8.38555e-07
-7.15064e-07
9.23625e-07
-6.76886e-07
1.01452e-06
-6.36567e-07
1.11184e-06
-5.94777e-07
1.21616e-06
-5.52369e-07
1.32741e-06
-5.10613e-07
1.44683e-06
-4.70061e-07
1.57188e-06
-4.33648e-07
1.70364e-06
-4.00516e-07
-3.74096e-07
1.83727e-06
-1.47156e-08
7.84907e-07
-3.19713e-08
9.0245e-07
-3.32762e-08
7.47615e-07
9.01771e-08
-1.93714e-08
1.68272e-07
-6.41455e-07
2.19933e-07
-8.76464e-07
2.66522e-07
-9.50896e-07
3.16585e-07
-9.65507e-07
3.71549e-07
-9.58552e-07
4.31704e-07
-9.43483e-07
4.95725e-07
-9.25281e-07
5.63177e-07
-9.04585e-07
6.33964e-07
-8.81124e-07
7.07903e-07
-8.55048e-07
7.85324e-07
-8.26238e-07
8.66785e-07
-7.94932e-07
9.5289e-07
-7.61495e-07
1.04422e-06
-7.26454e-07
1.14122e-06
-6.90473e-07
1.24407e-06
-6.54354e-07
1.35338e-06
-6.18705e-07
1.46795e-06
-5.85114e-07
1.58933e-06
-5.52992e-07
1.71401e-06
-5.25169e-07
-5.00072e-07
1.84167e-06
-1.9662e-08
8.08657e-07
-3.04467e-08
9.16679e-07
-1.81037e-08
7.39196e-07
8.73318e-08
-1.20993e-07
1.58277e-07
-7.11186e-07
2.11154e-07
-9.26659e-07
2.62396e-07
-9.98953e-07
3.17678e-07
-1.01722e-06
3.78077e-07
-1.01474e-06
4.4225e-07
-1.00426e-06
5.09743e-07
-9.89575e-07
5.80288e-07
-9.7185e-07
6.5328e-07
-9.51717e-07
7.2906e-07
-9.28781e-07
8.07958e-07
-9.03409e-07
8.90462e-07
-8.75908e-07
9.77138e-07
-8.4674e-07
1.06848e-06
-8.16444e-07
1.16479e-06
-7.85621e-07
1.26642e-06
-7.54887e-07
1.37303e-06
-7.25106e-07
1.48567e-06
-6.96168e-07
1.60229e-06
-6.69954e-07
1.72403e-06
-6.45142e-07
-6.23248e-07
1.84846e-06
-2.46097e-08
8.37884e-07
-2.27581e-08
9.19622e-07
-2.51764e-08
7.45633e-07
7.05514e-08
-2.15603e-07
1.39725e-07
-7.76999e-07
1.96073e-07
-9.8105e-07
2.5405e-07
-1.05373e-06
3.16153e-07
-1.07567e-06
3.81888e-07
-1.07701e-06
4.50676e-07
-1.06926e-06
5.2178e-07
-1.05721e-06
5.94595e-07
-1.04235e-06
6.69748e-07
-1.02436e-06
7.47071e-07
-1.0041e-06
8.27024e-07
-9.81699e-07
9.10171e-07
-9.57593e-07
9.97036e-07
-9.32252e-07
1.08807e-06
-9.06204e-07
1.18359e-06
-8.80005e-07
1.28366e-06
-8.54227e-07
1.3889e-06
-8.29107e-07
1.49829e-06
-8.05782e-07
1.61329e-06
-7.83263e-07
1.73213e-06
-7.63117e-07
-7.44472e-07
1.85472e-06
-4.17514e-08
8.83736e-07
-4.67605e-08
9.29126e-07
-5.24052e-08
7.54235e-07
4.13264e-08
-3.04868e-07
1.11704e-07
-8.46852e-07
1.76916e-07
-1.04339e-06
2.43816e-07
-1.11743e-06
3.13302e-07
-1.1418e-06
3.85057e-07
-1.14475e-06
4.57963e-07
-1.13895e-06
5.31854e-07
-1.12854e-06
6.07424e-07
-1.11467e-06
6.84026e-07
-1.09885e-06
7.62441e-07
-1.08067e-06
8.43094e-07
-1.06078e-06
9.26512e-07
-1.03962e-06
1.01324e-06
-1.01769e-06
1.10371e-06
-9.95483e-07
1.1982e-06
-9.7348e-07
1.29709e-06
-9.52075e-07
1.40008e-06
-9.31909e-07
1.50837e-06
-9.12482e-07
1.62063e-06
-8.95172e-07
1.7377e-06
-8.79015e-07
-8.6417e-07
1.85908e-06
-7.10211e-08
9.59166e-07
-1.03126e-07
9.64973e-07
-8.18548e-08
7.38179e-07
2.19914e-09
-3.88233e-07
8.10154e-08
-9.22407e-07
1.57185e-07
-1.11714e-06
2.33957e-07
-1.1915e-06
3.1134e-07
-1.21551e-06
3.88208e-07
-1.21854e-06
4.65027e-07
-1.21243e-06
5.42041e-07
-1.20209e-06
6.188e-07
-1.18967e-06
6.96776e-07
-1.17452e-06
7.7588e-07
-1.15796e-06
8.56763e-07
-1.14016e-06
9.40057e-07
-1.1216e-06
1.02631e-06
-1.10273e-06
1.11595e-06
-1.084e-06
1.20935e-06
-1.06585e-06
1.30658e-06
-1.04868e-06
1.40845e-06
-1.03248e-06
1.51419e-06
-1.01818e-06
1.62504e-06
-1.00478e-06
1.74064e-06
-9.92928e-07
-9.82895e-07
1.86037e-06
-9.92509e-08
1.0609e-06
-1.55702e-07
1.02614e-06
-1.18762e-07
7.04371e-07
-3.70999e-08
-4.65864e-07
5.16575e-08
-1.01074e-06
1.40258e-07
-1.20319e-06
2.27206e-07
-1.27551e-06
3.11447e-07
-1.29661e-06
3.93463e-07
-1.29695e-06
4.73428e-07
-1.28939e-06
5.51783e-07
-1.27857e-06
6.30402e-07
-1.2651e-06
7.08679e-07
-1.25099e-06
7.8788e-07
-1.23554e-06
8.68558e-07
-1.21944e-06
9.5132e-07
-1.20312e-06
1.03675e-06
-1.187e-06
1.1253e-06
-1.1715e-06
1.21729e-06
-1.15694e-06
1.31318e-06
-1.14359e-06
1.4128e-06
-1.1319e-06
1.51735e-06
-1.12125e-06
1.62625e-06
-1.11265e-06
1.73961e-06
-1.10581e-06
-1.09973e-06
1.85851e-06
-1.1392e-07
1.17859e-06
-1.84969e-07
1.10002e-06
-1.54626e-07
6.81663e-07
-7.45535e-08
-5.46378e-07
2.93193e-08
-1.11093e-06
1.29651e-07
-1.30214e-06
2.25755e-07
-1.36878e-06
3.16149e-07
-1.38395e-06
4.01641e-07
-1.37965e-06
4.83595e-07
-1.36857e-06
5.63749e-07
-1.35529e-06
6.41868e-07
-1.34204e-06
7.20302e-07
-1.32733e-06
7.99052e-07
-1.31267e-06
8.78958e-07
-1.29801e-06
9.60732e-07
-1.28371e-06
1.04495e-06
-1.27015e-06
1.1321e-06
-1.25763e-06
1.22254e-06
-1.24648e-06
1.31647e-06
-1.23694e-06
1.41474e-06
-1.22886e-06
1.51682e-06
-1.2231e-06
1.62363e-06
-1.21873e-06
1.73596e-06
-1.21573e-06
-1.21553e-06
1.85239e-06
-1.14199e-07
1.29408e-06
-1.87265e-07
1.17904e-06
-1.79711e-07
6.75451e-07
-9.89291e-08
-6.22887e-07
1.67453e-08
-1.22724e-06
1.29165e-07
-1.41211e-06
2.32449e-07
-1.46943e-06
3.2688e-07
-1.47573e-06
4.14626e-07
-1.46414e-06
4.974e-07
-1.44864e-06
5.76511e-07
-1.4332e-06
6.54954e-07
-1.41731e-06
7.32108e-07
-1.40298e-06
8.09675e-07
-1.38881e-06
8.88295e-07
-1.37538e-06
9.68622e-07
-1.36293e-06
1.05125e-06
-1.35175e-06
1.13667e-06
-1.3421e-06
1.2252e-06
-1.3342e-06
1.31738e-06
-1.32815e-06
1.41303e-06
-1.32438e-06
1.51342e-06
-1.3221e-06
1.61841e-06
-1.32215e-06
1.72742e-06
-1.32492e-06
-1.32842e-06
1.84269e-06
-9.78545e-08
1.3958e-06
-1.6381e-07
1.24616e-06
-1.72025e-07
6.92886e-07
-1.04566e-07
-6.91104e-07
2.29792e-08
-1.35195e-06
1.4263e-07
-1.52999e-06
2.49726e-07
-1.57464e-06
3.45818e-07
-1.56887e-06
4.32937e-07
-1.54904e-06
5.1438e-07
-1.52779e-06
5.9299e-07
-1.50838e-06
6.68624e-07
-1.49231e-06
7.44342e-07
-1.47678e-06
8.20093e-07
-1.46312e-06
8.96808e-07
-1.4509e-06
9.75204e-07
-1.44028e-06
1.05585e-06
-1.43143e-06
1.13919e-06
-1.42455e-06
1.22563e-06
-1.4198e-06
1.3153e-06
-1.41735e-06
1.40919e-06
-1.41693e-06
1.50679e-06
-1.41932e-06
1.6087e-06
-1.42385e-06
1.71664e-06
-1.4298e-06
-1.43984e-06
1.82829e-06
-6.91927e-08
1.46513e-06
-1.07866e-07
1.29101e-06
-1.36565e-07
7.22361e-07
-7.65105e-08
-7.47928e-07
5.25472e-08
-1.48158e-06
1.73729e-07
-1.64945e-06
2.80197e-07
-1.67895e-06
3.73447e-07
-1.65984e-06
4.57705e-07
-1.63052e-06
5.36188e-07
-1.60378e-06
6.10514e-07
-1.58215e-06
6.84448e-07
-1.5631e-06
7.57055e-07
-1.54815e-06
8.30232e-07
-1.53506e-06
9.0454e-07
-1.52411e-06
9.8057e-07
-1.51532e-06
1.05886e-06
-1.50879e-06
1.13982e-06
-1.50466e-06
1.22376e-06
-1.50302e-06
1.31119e-06
-1.50387e-06
1.40195e-06
-1.50755e-06
1.49714e-06
-1.51331e-06
1.59714e-06
-1.52176e-06
1.70046e-06
-1.53402e-06
-1.54718e-06
1.81043e-06
-2.72006e-08
1.4968e-06
-3.23273e-08
1.29683e-06
-6.79e-08
7.6962e-07
-9.76135e-09
-8.07277e-07
1.1243e-07
-1.60053e-06
2.25715e-07
-1.7621e-06
3.24678e-07
-1.77581e-06
4.10733e-07
-1.74368e-06
4.88319e-07
-1.70615e-06
5.60895e-07
-1.67459e-06
6.3186e-07
-1.64972e-06
7.00485e-07
-1.63158e-06
7.7002e-07
-1.61594e-06
8.40072e-07
-1.60382e-06
9.11441e-07
-1.59441e-06
9.847e-07
-1.58763e-06
1.06029e-06
-1.58352e-06
1.13858e-06
-1.58214e-06
1.21988e-06
-1.58356e-06
1.3043e-06
-1.58785e-06
1.39273e-06
-1.59469e-06
1.48479e-06
-1.60488e-06
1.5806e-06
-1.61789e-06
1.6827e-06
-1.63254e-06
-1.6525e-06
1.78786e-06
1.37056e-08
1.48328e-06
5.37164e-08
1.26502e-06
6.24138e-08
7.61335e-07
1.05605e-07
-8.46657e-07
2.0356e-07
-1.69971e-06
2.99484e-07
-1.85606e-06
3.8259e-07
-1.85697e-06
4.55954e-07
-1.8152e-06
5.23948e-07
-1.77167e-06
5.89315e-07
-1.73776e-06
6.52816e-07
-1.71323e-06
7.17894e-07
-1.69358e-06
7.82786e-07
-1.67984e-06
8.49162e-07
-1.66913e-06
9.17268e-07
-1.66155e-06
9.87465e-07
-1.65695e-06
1.06011e-06
-1.65535e-06
1.1355e-06
-1.65677e-06
1.21382e-06
-1.66123e-06
1.29554e-06
-1.66868e-06
1.38035e-06
-1.67947e-06
1.46931e-06
-1.69277e-06
1.56303e-06
-1.70916e-06
1.65932e-06
-1.73033e-06
-1.75265e-06
1.76227e-06
5.42796e-08
1.43374e-06
8.1964e-08
1.23829e-06
2.07003e-07
6.48029e-07
2.53524e-07
-8.94534e-07
3.23943e-07
-1.76741e-06
3.90221e-07
-1.92096e-06
4.49639e-07
-1.9151e-06
5.06354e-07
-1.86965e-06
5.61711e-07
-1.8256e-06
6.17575e-07
-1.79226e-06
6.75696e-07
-1.76802e-06
7.3382e-07
-1.75199e-06
7.94665e-07
-1.73915e-06
8.57163e-07
-1.73051e-06
9.2174e-07
-1.72519e-06
9.88677e-07
-1.72307e-06
1.0582e-06
-1.72412e-06
1.13052e-06
-1.72836e-06
1.20581e-06
-1.73584e-06
1.28407e-06
-1.74659e-06
1.36617e-06
-1.76026e-06
1.45164e-06
-1.77768e-06
1.54024e-06
-1.79855e-06
1.63513e-06
-1.82123e-06
-1.85029e-06
1.73226e-06
9.97762e-08
1.33478e-06
1.51446e-07
1.1912e-06
3.41365e-07
4.58051e-07
4.21671e-07
-9.7186e-07
4.53469e-07
-1.8e-06
4.84656e-07
-1.95062e-06
5.17739e-07
-1.94649e-06
5.55581e-07
-1.90588e-06
5.98292e-07
-1.86624e-06
6.45401e-07
-1.83736e-06
6.94953e-07
-1.81809e-06
7.49111e-07
-1.80322e-06
8.04883e-07
-1.79417e-06
8.63403e-07
-1.78816e-06
9.2446e-07
-1.78543e-06
9.88095e-07
-1.78595e-06
1.05444e-06
-1.78974e-06
1.12359e-06
-1.79686e-06
1.19563e-06
-1.8073e-06
1.2709e-06
-1.82102e-06
1.34903e-06
-1.83837e-06
1.43083e-06
-1.85862e-06
1.51727e-06
-1.88219e-06
1.60535e-06
-1.91141e-06
-1.94189e-06
1.69984e-06
1.45609e-07
1.19326e-06
2.51065e-07
1.08779e-06
4.6045e-07
2.5271e-07
5.53711e-07
-1.06726e-06
5.60674e-07
-1.8039e-06
5.64421e-07
-1.9541e-06
5.75632e-07
-1.95607e-06
5.97776e-07
-1.92643e-06
6.29278e-07
-1.89646e-06
6.67817e-07
-1.87496e-06
7.12934e-07
-1.86e-06
7.60552e-07
-1.85149e-06
8.12645e-07
-1.84494e-06
8.67487e-07
-1.84206e-06
9.2511e-07
-1.84227e-06
9.85505e-07
-1.84564e-06
1.04868e-06
-1.85226e-06
1.11466e-06
-1.86221e-06
1.18351e-06
-1.87554e-06
1.25514e-06
-1.89233e-06
1.33024e-06
-1.91225e-06
1.40841e-06
-1.93618e-06
1.48897e-06
-1.964e-06
1.57559e-06
-1.99374e-06
-2.03065e-06
1.66348e-06
1.69358e-07
1.02681e-06
3.11461e-07
9.47644e-07
5.32868e-07
3.02586e-08
6.27811e-07
-1.15886e-06
6.22276e-07
-1.80006e-06
6.15136e-07
-1.94538e-06
6.14596e-07
-1.95406e-06
6.27148e-07
-1.93772e-06
6.51734e-07
-1.91918e-06
6.85324e-07
-1.9068e-06
7.24118e-07
-1.8997e-06
7.69377e-07
-1.89396e-06
8.17358e-07
-1.89239e-06
8.68862e-07
-1.89286e-06
9.23378e-07
-1.8961e-06
9.80721e-07
-1.90234e-06
1.04084e-06
-1.91177e-06
1.1037e-06
-1.9245e-06
1.16928e-06
-1.9406e-06
1.2378e-06
-1.96006e-06
1.30877e-06
-1.98331e-06
1.38293e-06
-2.00962e-06
1.46134e-06
-2.03943e-06
1.54045e-06
-2.07542e-06
-2.11273e-06
1.62547e-06
1.61194e-07
8.68049e-07
2.98563e-07
8.13571e-07
5.38855e-07
-2.07925e-07
6.38585e-07
-1.26049e-06
6.41347e-07
-1.8004e-06
6.34229e-07
-1.93716e-06
6.32164e-07
-1.95116e-06
6.42587e-07
-1.94633e-06
6.64226e-07
-1.93992e-06
6.9446e-07
-1.93632e-06
7.32182e-07
-1.93429e-06
7.72928e-07
-1.93562e-06
8.18647e-07
-1.93694e-06
8.67416e-07
-1.94083e-06
9.19134e-07
-1.94716e-06
9.73659e-07
-1.95627e-06
1.03088e-06
-1.96843e-06
1.09073e-06
-1.9838e-06
1.15319e-06
-2.00251e-06
1.21802e-06
-2.02468e-06
1.28593e-06
-2.05002e-06
1.3564e-06
-2.07947e-06
1.42849e-06
-2.11312e-06
1.50621e-06
-2.14862e-06
-2.19184e-06
1.58415e-06
1.02074e-07
7.70717e-07
2.20993e-07
6.95384e-07
4.77845e-07
-4.64525e-07
6.1338e-07
-1.39319e-06
6.34048e-07
-1.82208e-06
6.29568e-07
-1.93141e-06
6.32297e-07
-1.95245e-06
6.45025e-07
-1.95778e-06
6.67782e-07
-1.961e-06
6.98156e-07
-1.96498e-06
7.32719e-07
-1.97002e-06
7.73375e-07
-1.97355e-06
8.16473e-07
-1.97965e-06
8.62959e-07
-1.98673e-06
9.1231e-07
-1.99593e-06
9.64305e-07
-2.00772e-06
1.01883e-06
-2.02243e-06
1.0758e-06
-2.04028e-06
1.13511e-06
-2.06137e-06
1.19693e-06
-2.08577e-06
1.26074e-06
-2.11392e-06
1.32704e-06
-2.14525e-06
1.39716e-06
-2.18004e-06
1.46693e-06
-2.22143e-06
-2.26395e-06
1.54198e-06
-2.6923e-08
7.9982e-07
1.1873e-07
5.59921e-07
4.13441e-07
-7.56973e-07
5.62332e-07
-1.54424e-06
5.995e-07
-1.85585e-06
6.076e-07
-1.93925e-06
6.19672e-07
-1.96287e-06
6.38376e-07
-1.97504e-06
6.63931e-07
-1.98551e-06
6.94577e-07
-1.99508e-06
7.308e-07
-2.00311e-06
7.68758e-07
-2.01262e-06
8.10992e-07
-2.0208e-06
8.55746e-07
-2.03077e-06
9.03036e-07
-2.04264e-06
9.52754e-07
-2.05692e-06
1.00478e-06
-2.07398e-06
1.05902e-06
-2.09404e-06
1.1154e-06
-2.11729e-06
1.1737e-06
-2.14387e-06
1.23447e-06
-2.17358e-06
1.29726e-06
-2.20741e-06
1.36079e-06
-2.24554e-06
1.42941e-06
-2.2854e-06
-2.33317e-06
1.49719e-06
-1.02687e-07
9.08536e-07
1.22613e-07
3.37018e-07
3.93611e-07
-1.02816e-06
5.23172e-07
-1.66951e-06
5.59488e-07
-1.89363e-06
5.79821e-07
-1.95746e-06
6.00692e-07
-1.98199e-06
6.25537e-07
-1.99859e-06
6.54844e-07
-2.01303e-06
6.8785e-07
-2.02642e-06
7.22563e-07
-2.03917e-06
7.61903e-07
-2.04922e-06
8.02574e-07
-2.06119e-06
8.45884e-07
-2.07359e-06
8.91459e-07
-2.08772e-06
9.3915e-07
-2.10415e-06
9.88877e-07
-2.12326e-06
1.04054e-06
-2.14528e-06
1.09402e-06
-2.17039e-06
1.14947e-06
-2.19865e-06
1.20627e-06
-2.23061e-06
1.26493e-06
-2.26566e-06
1.32676e-06
-2.30413e-06
1.38731e-06
-2.34929e-06
-2.3953e-06
1.45236e-06
-8.00329e-08
9.92723e-07
1.72069e-07
9.07023e-08
3.79044e-07
-1.23252e-06
4.77701e-07
-1.76954e-06
5.20437e-07
-1.93272e-06
5.50243e-07
-1.98551e-06
5.78841e-07
-2.00938e-06
6.09732e-07
-2.02743e-06
6.42126e-07
-2.04454e-06
6.76247e-07
-2.06006e-06
7.13647e-07
-2.07338e-06
7.51045e-07
-2.08794e-06
7.91629e-07
-2.10077e-06
8.33835e-07
-2.11518e-06
8.77869e-07
-2.13127e-06
9.23714e-07
-2.14957e-06
9.71292e-07
-2.17044e-06
1.02052e-06
-2.19412e-06
1.07133e-06
-2.22079e-06
1.12343e-06
-2.25066e-06
1.17742e-06
-2.28353e-06
1.23277e-06
-2.32041e-06
1.28804e-06
-2.36161e-06
1.34777e-06
-2.40425e-06