/*--------------------------------*- C++ -*----------------------------------*\
  =========                 |
  \\      /  F ield         | OpenFOAM: The Open Source CFD Toolbox
   \\    /   O peration     | Website:  https://openfoam.org
    \\  /    A nd           | Version:  13
     \\/     M anipulation  |
\*---------------------------------------------------------------------------*/
FoamFile
{
    format      ascii;
    class       surfaceScalarField;
    location    "2";
    object      phi;
}
// * * * * * * * * * * * * * * * * * * * * * * * * * * * * * * * * * * * * * //

dimensions      [0 3 -1 0 0 0 0];

internalField   nonuniform List<scalar> 
12590
(
-1.01379e-12
1.01381e-12
-2.19512e-12
1.18136e-12
-2.82325e-12
6.2816e-13
-2.66068e-12
-1.62533e-13
-1.60175e-12
-1.0589e-12
3.77119e-13
-1.97884e-12
3.22514e-12
-2.84799e-12
6.84292e-12
-3.61775e-12
1.10653e-11
-4.22238e-12
1.57037e-11
-4.63837e-12
2.05478e-11
-4.84406e-12
2.53755e-11
-4.82764e-12
2.99746e-11
-4.59908e-12
3.42691e-11
-4.29453e-12
3.78474e-11
-3.57828e-12
4.03128e-11
-2.46534e-12
4.12938e-11
-9.81022e-13
4.03686e-11
9.25283e-13
3.74095e-11
2.95913e-12
3.27179e-11
4.69157e-12
2.6477e-11
6.24101e-12
1.90835e-11
7.39349e-12
1.1295e-11
7.78849e-12
4.29735e-12
6.99772e-12
4.29735e-12
-1.26424e-13
1.14027e-12
9.76034e-13
7.89524e-14
4.04833e-12
-2.44409e-12
9.38382e-12
-5.49797e-12
1.70136e-11
-8.68868e-12
2.67511e-11
-1.17162e-11
3.82311e-11
-1.43279e-11
5.09368e-11
-1.63234e-11
6.42659e-11
-1.75514e-11
7.75297e-11
-1.79022e-11
8.99921e-11
-1.73064e-11
1.009e-10
-1.57358e-11
1.09508e-10
-1.32064e-11
1.1506e-10
-9.84729e-12
1.17855e-10
-6.37244e-12
1.16668e-10
-1.27889e-12
1.1059e-10
5.09736e-12
1.00587e-10
1.09279e-11
8.71644e-11
1.63821e-11
7.07627e-11
2.10934e-11
5.2539e-11
2.44648e-11
3.41167e-11
2.58158e-11
1.75487e-11
2.43565e-11
5.30318e-12
1.92433e-11
9.60054e-12
1.36503e-12
-2.24709e-13
6.4836e-12
-5.03956e-12
1.56489e-11
-1.16093e-11
2.87885e-11
-1.86376e-11
4.55364e-11
-2.54364e-11
6.52566e-11
-3.14365e-11
8.70865e-11
-3.61578e-11
1.09986e-10
-3.92225e-11
1.32788e-10
-4.03533e-11
1.54258e-10
-3.93721e-11
1.73152e-10
-3.62006e-11
1.88278e-10
-3.08618e-11
1.98569e-10
-2.34973e-11
2.03149e-10
-1.44269e-11
2.01807e-10
-5.03114e-12
1.92711e-10
7.81765e-12
1.77953e-10
1.98548e-11
1.57491e-10
3.13906e-11
1.32286e-10
4.15872e-11
1.0393e-10
4.94492e-11
7.45235e-11
5.3871e-11
4.65848e-11
5.37545e-11
2.2892e-11
4.80495e-11
6.48154e-12
3.56538e-11
1.60821e-11
3.21349e-12
-3.43814e-12
1.3348e-11
-1.5174e-11
3.00585e-11
-2.83197e-11
5.26683e-11
-4.12474e-11
8.01994e-11
-5.29674e-11
1.11382e-10
-6.26193e-11
1.44704e-10
-6.94792e-11
1.7847e-10
-7.29887e-11
2.10883e-10
-7.27659e-11
2.40126e-10
-6.86149e-11
2.64459e-10
-6.05343e-11
2.82316e-10
-4.87182e-11
2.92416e-10
-3.35972e-11
2.93932e-10
-1.5943e-11
2.8573e-10
3.17038e-12
2.68852e-10
2.46962e-11
2.43695e-10
4.50119e-11
2.11491e-10
6.3594e-11
1.74132e-10
7.89471e-11
1.34074e-10
8.9507e-11
9.42111e-11
9.37337e-11
5.77075e-11
9.02581e-11
2.77736e-11
7.79834e-11
7.65456e-12
5.57729e-11
2.37367e-11
5.25406e-12
-8.69213e-12
2.08904e-11
-3.08102e-11
4.57941e-11
-5.32233e-11
7.85498e-11
-7.4003e-11
1.17436e-10
-9.18537e-11
1.60436e-10
-1.05619e-10
2.05298e-10
-1.1434e-10
2.49614e-10
-1.17305e-10
2.9093e-10
-1.14082e-10
3.26861e-10
-1.04546e-10
3.55222e-10
-8.88959e-11
3.74162e-10
-6.76581e-11
3.82271e-10
-4.1706e-11
3.79229e-10
-1.29012e-11
3.63231e-10
1.91693e-11
3.36825e-10
5.11022e-11
3.0062e-10
8.12167e-11
2.56721e-10
1.07493e-10
2.07863e-10
1.27806e-10
1.57276e-10
1.40094e-10
1.08499e-10
1.42511e-10
6.51564e-11
1.336e-10
3.0661e-11
1.12479e-10
8.18293e-12
7.8251e-11
3.19196e-11
7.27101e-12
-1.59631e-11
2.82776e-11
-5.18167e-11
6.10797e-11
-8.60253e-11
1.03471e-10
-1.16394e-10
1.52944e-10
-1.41327e-10
2.0671e-10
-1.59385e-10
2.61767e-10
-1.69397e-10
3.15012e-10
-1.7055e-10
3.63376e-10
-1.62446e-10
4.03973e-10
-1.45143e-10
4.34259e-10
-1.19182e-10
4.52208e-10
-8.56064e-11
4.56387e-10
-4.58853e-11
4.47209e-10
-3.72331e-12
4.2319e-10
4.31892e-11
3.8679e-10
8.75017e-11
3.39964e-10
1.28042e-10
2.85587e-10
1.6187e-10
2.27163e-10
1.8623e-10
1.68582e-10
1.98675e-10
1.13839e-10
1.97254e-10
6.67368e-11
1.80702e-10
3.05198e-11
1.48696e-10
7.82191e-12
1.00949e-10
3.97415e-11
9.00014e-12
-2.49631e-11
3.45369e-11
-7.73533e-11
7.38837e-11
-1.25372e-10
1.24088e-10
-1.66598e-10
1.81917e-10
-1.99156e-10
2.43874e-10
-2.21342e-10
3.06296e-10
-2.31819e-10
3.65488e-10
-2.29742e-10
4.17892e-10
-2.1485e-10
4.6028e-10
-1.8753e-10
4.89947e-10
-1.48849e-10
5.04907e-10
-1.00567e-10
5.04112e-10
-4.50901e-11
4.85983e-10
1.44061e-11
4.53985e-10
7.51876e-11
4.08718e-10
1.32768e-10
3.53179e-10
1.83581e-10
2.91073e-10
2.23976e-10
2.26604e-10
2.50699e-10
1.64128e-10
2.61151e-10
1.07787e-10
2.53595e-10
6.11595e-11
2.2733e-10
2.6862e-11
1.82993e-10
6.50201e-12
1.21309e-10
4.62435e-11
1.01672e-11
-3.51301e-11
3.8689e-11
-1.05875e-10
8.2204e-11
-1.68887e-10
1.37166e-10
-2.2156e-10
1.9977e-10
-2.6176e-10
2.65981e-10
-2.87553e-10
3.31647e-10
-2.97485e-10
3.92661e-10
-2.90756e-10
4.45166e-10
-2.67355e-10
4.85768e-10
-2.28132e-10
5.11757e-10
-1.74838e-10
5.21301e-10
-1.10111e-10
5.13578e-10
-3.73666e-11
4.88801e-10
3.91828e-11
4.4901e-10
1.14979e-10
3.96677e-10
1.85101e-10
3.35466e-10
2.44793e-10
2.69704e-10
2.89738e-10
2.04003e-10
3.16399e-10
1.42842e-10
3.22313e-10
9.0093e-11
3.06344e-10
4.8627e-11
2.68796e-10
1.99626e-11
2.11658e-10
4.38421e-12
1.36887e-10
5.06278e-11
1.05443e-11
-4.56742e-11
3.99412e-11
-1.35272e-10
8.44564e-11
-2.13402e-10
1.40199e-10
-2.77302e-10
2.03042e-10
-3.24602e-10
2.68656e-10
-3.53167e-10
3.32649e-10
-3.61478e-10
3.90755e-10
-3.48862e-10
4.39065e-10
-3.15664e-10
4.74259e-10
-2.63327e-10
4.93843e-10
-1.94422e-10
4.96342e-10
-1.1261e-10
4.81516e-10
-2.25405e-11
4.50305e-10
7.03943e-11
4.05009e-10
1.60275e-10
3.49013e-10
2.41097e-10
2.8654e-10
3.07266e-10
2.22279e-10
3.53999e-10
1.60936e-10
3.77742e-10
1.06668e-10
3.76581e-10
6.26388e-11
3.50373e-10
3.07766e-11
3.00658e-10
1.09416e-11
2.31493e-10
1.55313e-12
1.46276e-10
5.21809e-11
1.00016e-11
-5.56757e-11
3.78608e-11
-1.63131e-10
7.98172e-11
-2.55358e-10
1.31957e-10
-3.29442e-10
1.90136e-10
-3.82782e-10
2.50037e-10
-4.13068e-10
3.07325e-10
-4.18765e-10
3.57859e-10
-3.99397e-10
3.97953e-10
-3.55758e-10
4.24596e-10
-2.89969e-10
4.35702e-10
-2.05527e-10
4.3027e-10
-1.07178e-10
4.09216e-10
-1.48668e-12
3.73162e-10
1.06448e-10
3.2555e-10
2.07887e-10
2.70152e-10
2.96495e-10
2.11435e-10
3.65984e-10
1.54026e-10
4.11408e-10
1.02408e-10
4.2936e-10
6.02544e-11
4.18735e-10
2.89953e-11
3.81632e-10
9.44104e-12
3.20212e-10
2.40191e-13
2.40694e-10
-1.28715e-12
1.47803e-10
5.08938e-11
8.53889e-12
-6.42143e-11
3.24741e-11
-1.87066e-10
6.84045e-11
-2.91288e-10
1.12743e-10
-3.7378e-10
1.6166e-10
-4.31699e-10
2.1116e-10
-4.62568e-10
2.57255e-10
-4.6486e-10
2.96265e-10
-4.38406e-10
3.2497e-10
-3.84463e-10
3.40929e-10
-3.05928e-10
3.42685e-10
-2.07283e-10
3.29994e-10
-9.44866e-11
3.02959e-10
2.55481e-11
2.6524e-10
1.44168e-10
2.19195e-10
2.53931e-10
1.68892e-10
3.46799e-10
1.18922e-10
4.15954e-10
7.31123e-11
4.57217e-10
3.58694e-11
4.66603e-10
8.67041e-12
4.45934e-10
-6.66104e-12
3.96964e-10
-1.20381e-11
3.2559e-10
-9.56107e-12
2.38217e-10
-3.79543e-12
1.42038e-10
4.70983e-11
6.28818e-12
-7.05023e-11
2.42633e-11
-2.05041e-10
5.12551e-11
-3.1828e-10
8.43338e-11
-4.06858e-10
1.2029e-10
-4.67655e-10
1.55746e-10
-4.98023e-10
1.87357e-10
-4.9647e-10
2.12098e-10
-4.63147e-10
2.27446e-10
-3.99811e-10
2.31678e-10
-3.1016e-10
2.24019e-10
-1.99624e-10
2.0474e-10
-7.5207e-11
1.75485e-10
5.48029e-11
1.38684e-10
1.80968e-10
9.80546e-11
2.94561e-10
5.72075e-11
3.87646e-10
1.98147e-11
4.53347e-10
-9.80456e-12
4.86836e-10
-3.08955e-11
4.87694e-10
-4.04029e-11
4.55442e-10
-3.97084e-11
3.96269e-10
-3.06507e-11
3.16532e-10
-1.76983e-11
2.25265e-10
-5.63698e-12
1.29976e-10
4.14613e-11
3.50342e-12
-7.40054e-11
1.40863e-11
-2.15623e-10
3.01552e-11
-3.34348e-10
4.96896e-11
-4.26392e-10
7.03412e-11
-4.88306e-10
8.95779e-11
-5.1726e-10
1.04901e-10
-5.11793e-10
1.14081e-10
-4.72327e-10
1.15548e-10
-4.01278e-10
1.08309e-10
-3.02921e-10
9.23543e-11
-1.83669e-10
6.85054e-11
-5.13581e-11
3.91944e-11
8.41139e-11
6.98193e-12
2.13181e-10
-2.54055e-11
3.26948e-10
-5.40384e-11
4.16279e-10
-7.57976e-11
4.75106e-10
-8.86776e-11
4.99716e-10
-9.06036e-11
4.8962e-10
-8.27283e-11
4.47566e-10
-6.6499e-11
3.8004e-10
-4.52017e-11
2.95234e-10
-2.34777e-11
2.03541e-10
-6.70128e-12
1.132e-10
3.47601e-11
3.6607e-13
-7.43712e-11
2.97186e-12
-2.18229e-10
7.28551e-12
-3.38662e-10
1.23655e-11
-4.31472e-10
1.68921e-11
-4.92833e-10
1.93199e-11
-5.19687e-10
1.81584e-11
-5.10631e-10
1.21337e-11
-4.66302e-10
3.54118e-13
-3.89499e-10
-1.70443e-11
-2.85522e-10
-3.93751e-11
-1.61339e-10
-6.5643e-11
-2.50901e-11
-9.27606e-11
1.11231e-10
-1.18593e-10
2.39014e-10
-1.39867e-10
3.48222e-10
-1.54151e-10
4.30563e-10
-1.59328e-10
4.80283e-10
-1.54296e-10
4.94685e-10
-1.39171e-10
4.74495e-10
-1.15596e-10
4.23991e-10
-8.63055e-11
3.5075e-10
-5.50168e-11
2.63946e-10
-2.67947e-11
1.75318e-10
-7.26012e-12
9.36652e-11
2.74999e-11
-2.61228e-12
-7.17587e-11
-7.86001e-12
-2.12981e-10
-1.50342e-11
-3.31487e-10
-2.39391e-11
-4.22567e-10
-3.48278e-11
-4.81944e-10
-4.82135e-11
-5.06301e-10
-6.46309e-11
-4.94214e-10
-8.43768e-11
-4.46556e-10
-1.07243e-10
-3.66632e-10
-1.3266e-10
-2.60105e-10
-1.59338e-10
-1.34661e-10
-1.85394e-10
9.66598e-13
-2.08298e-10
1.34136e-10
-2.25684e-10
2.56399e-10
-2.35187e-10
3.57725e-10
-2.35008e-10
4.30383e-10
-2.24212e-10
4.69487e-10
-2.0298e-10
4.73452e-10
-1.72806e-10
4.44321e-10
-1.36443e-10
3.87627e-10
-9.74135e-11
3.1172e-10
-5.97508e-11
2.26283e-10
-2.77501e-11
1.43318e-10
-7.81435e-12
7.37293e-11
1.96855e-11
-5.21381e-12
-6.65447e-11
-1.74773e-11
-2.00717e-10
-3.48572e-11
-3.14107e-10
-5.60989e-11
-4.01325e-10
-8.04404e-11
-4.57602e-10
-1.07407e-10
-4.79334e-10
-1.36571e-10
-4.6505e-10
-1.67331e-10
-4.15796e-10
-1.98769e-10
-3.35194e-10
-2.29565e-10
-2.2931e-10
-2.57937e-10
-1.06288e-10
-2.82363e-10
2.53924e-11
-2.99508e-10
1.51281e-10
-3.07981e-10
2.64872e-10
-3.05997e-10
3.55741e-10
-2.9266e-10
4.17046e-10
-2.68177e-10
4.45004e-10
-2.33939e-10
4.39214e-10
-1.92325e-10
4.02707e-10
-1.46909e-10
3.42211e-10
-1.02204e-10
2.67015e-10
-6.24792e-11
1.86558e-10
-3.16435e-11
1.12482e-10
-7.10512e-12
4.91908e-11
1.25804e-11
-7.2842e-12
-5.92604e-11
-2.51582e-11
-1.82843e-10
-5.07409e-11
-2.88524e-10
-8.18435e-11
-3.70222e-10
-1.16802e-10
-4.22644e-10
-1.54262e-10
-4.41874e-10
-1.9296e-10
-4.26352e-10
-2.31548e-10
-3.77208e-10
-2.68487e-10
-2.98255e-10
-3.02014e-10
-1.95782e-10
-3.30271e-10
-7.80312e-11
-3.50343e-10
4.54644e-11
-3.61511e-10
1.62449e-10
-3.61583e-10
2.64944e-10
-3.49663e-10
3.43822e-10
-3.25745e-10
3.93128e-10
-2.90932e-10
4.1019e-10
-2.47578e-10
3.9586e-10
-1.99026e-10
3.54155e-10
-1.48493e-10
2.91678e-10
-9.99623e-11
2.18484e-10
-5.9718e-11
1.46314e-10
-2.99238e-11
8.26875e-11
-4.14834e-12
2.34152e-11
8.432e-12
-8.67486e-12
-5.05855e-11
-3.04917e-11
-1.61026e-10
-6.18674e-11
-2.57149e-10
-9.98894e-11
-3.322e-10
-1.42159e-10
-3.80374e-10
-1.86598e-10
-3.97435e-10
-2.31263e-10
-3.81686e-10
-2.74217e-10
-3.34254e-10
-3.13466e-10
-2.59006e-10
-3.4698e-10
-1.62267e-10
-3.72792e-10
-5.22188e-11
-3.88335e-10
6.10078e-11
-3.92945e-10
1.67058e-10
-3.85366e-10
2.57365e-10
-3.65432e-10
3.23889e-10
-3.33983e-10
3.61679e-10
-2.92871e-10
3.69078e-10
-2.4487e-10
3.4786e-10
-1.93266e-10
3.02551e-10
-1.41467e-10
2.39879e-10
-9.46808e-11
1.71698e-10
-5.61601e-11
1.07793e-10
-2.90848e-11
5.56121e-11
-4.30658e-12
-1.363e-12
4.12543e-12
-9.36681e-12
-4.12189e-11
-3.33856e-11
-1.37007e-10
-6.80675e-11
-2.22467e-10
-1.09999e-10
-2.90269e-10
-1.56228e-10
-3.34145e-10
-2.04122e-10
-3.49541e-10
-2.51232e-10
-3.34576e-10
-2.95214e-10
-2.90272e-10
-3.3379e-10
-2.20429e-10
-3.64776e-10
-1.31281e-10
-3.86577e-10
-3.04172e-11
-3.96723e-10
7.11536e-11
-3.94964e-10
1.65299e-10
-3.80867e-10
2.43269e-10
-3.55059e-10
2.98081e-10
-3.19219e-10
3.25839e-10
-2.75938e-10
3.25798e-10
-2.28494e-10
3.00416e-10
-1.80777e-10
2.54835e-10
-1.36606e-10
1.95708e-10
-9.91372e-11
1.34229e-10
-6.68754e-11
7.55315e-11
-3.89466e-11
2.76834e-11
-1.66114e-11
-2.36982e-11
-1.24859e-11
-9.38908e-12
-3.18301e-11
-3.39725e-11
-1.12424e-10
-6.96474e-11
-1.86792e-10
-1.12735e-10
-2.47181e-10
-1.59945e-10
-2.86935e-10
-2.08291e-10
-3.01194e-10
-2.55009e-10
-2.87857e-10
-2.97506e-10
-2.47774e-10
-3.33383e-10
-1.84552e-10
-3.60529e-10
-1.04135e-10
-3.76342e-10
-1.46037e-11
-3.80449e-10
7.52613e-11
-3.72316e-10
1.57167e-10
-3.51886e-10
2.22839e-10
-3.20551e-10
2.66745e-10
-2.8064e-10
2.85928e-10
-2.35362e-10
2.8052e-10
-1.88634e-10
2.53688e-10
-1.45004e-10
2.11206e-10
-1.09031e-10
1.59734e-10
-7.87266e-11
1.03925e-10
-6.18947e-11
5.86997e-11
-6.2579e-11
2.83678e-11
-8.94708e-11
3.19373e-12
-1.01957e-10
-1.06056e-11
-2.12249e-11
-3.96723e-11
-8.3358e-11
-8.26827e-11
-1.43782e-10
-1.34588e-10
-1.95276e-10
-1.90008e-10
-2.31515e-10
-2.43542e-10
-2.4766e-10
-2.9015e-10
-2.41248e-10
-3.2554e-10
-2.12383e-10
-3.46497e-10
-1.63595e-10
-3.51091e-10
-9.95397e-11
-3.39377e-10
-2.63177e-11
-3.12555e-10
4.84402e-11
-2.72965e-10
1.17578e-10
-2.24791e-10
1.74666e-10
-1.72481e-10
2.14436e-10
-1.20593e-10
2.34041e-10
-7.31689e-11
2.33097e-10
-3.30677e-11
2.13587e-10
-1.32086e-12
1.79459e-10
2.24666e-11
1.35947e-10
3.66742e-11
8.9718e-11
4.47233e-11
5.06509e-11
4.17337e-11
3.13576e-11
-1.49565e-12
4.64232e-11
9.96842e-11
-2.03136e-10
-8.77645e-12
-1.24488e-11
-3.33812e-11
-5.87536e-11
-7.02732e-11
-1.0689e-10
-1.15266e-10
-1.50283e-10
-1.63743e-10
-1.83037e-10
-2.10993e-10
-2.0041e-10
-2.52566e-10
-1.99675e-10
-2.84627e-10
-1.80322e-10
-3.04258e-10
-1.43963e-10
-3.0973e-10
-9.40672e-11
-3.00514e-10
-3.55331e-11
-2.77572e-10
2.54989e-11
-2.43367e-10
8.33738e-11
-2.00883e-10
1.32182e-10
-1.54018e-10
1.67571e-10
-1.06817e-10
1.8684e-10
-6.30153e-11
1.89296e-10
-2.56835e-11
1.76256e-10
3.00736e-12
1.50769e-10
2.13366e-11
1.17618e-10
2.81175e-11
8.29372e-11
2.32066e-11
5.55619e-11
8.18961e-12
4.63747e-11
-1.7508e-11
7.2121e-11
1.41767e-10
-5.95909e-11
-6.952e-12
-5.49726e-12
-2.69442e-11
-3.87618e-11
-5.73503e-11
-7.64845e-11
-9.48284e-11
-1.12805e-10
-1.35539e-10
-1.42326e-10
-1.75473e-10
-1.60476e-10
-2.10791e-10
-1.64355e-10
-2.38146e-10
-1.52966e-10
-2.54949e-10
-1.27159e-10
-2.59583e-10
-8.94319e-11
-2.51499e-10
-4.3617e-11
-2.31559e-10
5.55951e-12
-2.01368e-10
5.31836e-11
-1.63661e-10
9.4475e-11
-1.21714e-10
1.25625e-10
-7.90498e-11
1.44176e-10
-3.90625e-11
1.49309e-10
-4.70571e-12
1.41899e-10
2.13829e-11
1.2468e-10
3.74261e-11
1.01575e-10
4.19268e-11
7.84367e-11
3.45495e-11
6.29393e-11
1.69935e-11
6.39309e-11
-4.91163e-12
9.40262e-11
1.59253e-10
-2.23968e-11
-5.2141e-12
-2.83597e-13
-2.07375e-11
-2.32388e-11
-4.47375e-11
-5.24848e-11
-7.46476e-11
-8.2895e-11
-1.07367e-10
-1.09606e-10
-1.39567e-10
-1.28276e-10
-1.68004e-10
-1.35918e-10
-1.89809e-10
-1.31161e-10
-2.02731e-10
-1.14236e-10
-2.05327e-10
-8.68354e-11
-1.97092e-10
-5.18518e-11
-1.78537e-10
-1.29944e-11
-1.51038e-10
2.56847e-11
-1.168e-10
6.02372e-11
-7.8585e-11
8.74104e-11
-3.9411e-11
1.05002e-10
-2.2662e-12
1.12164e-10
3.00491e-11
1.09584e-10
5.53749e-11
9.93546e-11
7.18885e-11
8.50618e-11
7.86017e-11
7.17235e-11
7.5992e-11
6.55492e-11
6.62971e-11
7.36258e-11
5.61532e-11
1.0417e-10
1.62343e-10
5.30629e-11
-3.63363e-12
3.34956e-12
-1.50226e-11
-1.18502e-11
-3.30035e-11
-3.45042e-11
-5.56903e-11
-6.02083e-11
-8.06503e-11
-8.46464e-11
-1.0518e-10
-1.03746e-10
-1.26588e-10
-1.14509e-10
-1.42456e-10
-1.15291e-10
-1.50859e-10
-1.05833e-10
-1.50531e-10
-8.71632e-11
-1.40982e-10
-6.13999e-11
-1.22541e-10
-3.1435e-11
-9.63108e-11
-5.44749e-13
-6.40898e-11
2.80166e-11
-2.81559e-11
5.14768e-11
8.93283e-12
6.79141e-11
4.45928e-11
7.65044e-11
7.65358e-11
7.76413e-11
1.02862e-10
7.30285e-11
1.22277e-10
6.56474e-11
1.34371e-10
5.96294e-11
1.40038e-10
5.98822e-11
1.41825e-10
7.18389e-11
1.44894e-10
1.01101e-10
1.51655e-10
1.55582e-10
-2.25122e-12
5.60027e-12
-9.95502e-12
-4.14695e-12
-2.24892e-11
-2.19704e-11
-3.85467e-11
-4.4151e-11
-5.62786e-11
-6.69143e-11
-7.3537e-11
-8.64876e-11
-8.81271e-11
-9.99185e-11
-9.8039e-11
-1.05379e-10
-1.01644e-10
-1.02227e-10
-9.78438e-11
-9.09625e-11
-8.61727e-11
-7.30703e-11
-6.68387e-11
-5.07683e-11
-4.07026e-11
-2.66804e-11
-9.205e-12
-3.4806e-12
2.57793e-11
1.64929e-11
6.21543e-11
3.15393e-11
9.77662e-11
4.08927e-11
1.30717e-10
4.46909e-11
1.59581e-10
4.41639e-11
1.83415e-10
4.18142e-11
2.02338e-10
4.07062e-11
2.17356e-10
4.4864e-11
2.31034e-10
5.81617e-11
2.4732e-10
8.48141e-11
1.27663e-10
2.71313e-10
-1.07864e-12
6.67834e-12
-5.59296e-12
3.668e-13
-1.33407e-11
-1.4223e-11
-2.34943e-11
-3.39976e-11
-3.47026e-11
-5.57059e-11
-4.52996e-11
-7.58902e-11
-5.35259e-11
-9.16916e-11
-5.77331e-11
-1.01171e-10
-5.65578e-11
-1.03402e-10
-4.90558e-11
-9.84638e-11
-3.47912e-11
-8.73343e-11
-1.38796e-11
-7.16793e-11
1.30207e-11
-5.35802e-11
4.47667e-11
-3.52262e-11
7.98571e-11
-1.85972e-11
1.16583e-10
-5.18665e-12
1.53267e-10
4.20891e-12
1.88374e-10
9.58422e-12
2.20713e-10
1.18255e-11
2.4983e-10
1.26968e-11
2.75906e-10
1.46301e-11
3.0015e-10
2.06208e-11
3.24629e-10
3.3682e-11
3.52724e-10
5.67192e-11
9.18633e-11
3.88524e-10
-1.15521e-13
6.79324e-12
-1.92755e-12
2.17819e-12
-5.56743e-12
-1.05836e-11
-1.05898e-11
-2.89755e-11
-1.60576e-11
-5.02381e-11
-2.07157e-11
-7.12317e-11
-2.31809e-11
-8.92259e-11
-2.21197e-11
-1.02231e-10
-1.64029e-11
-1.09118e-10
-5.22443e-12
-1.09642e-10
1.18169e-11
-1.04375e-10
3.46764e-11
-9.45382e-11
6.28687e-11
-8.1772e-11
9.5515e-11
-6.78721e-11
1.31436e-10
-5.45175e-11
1.69283e-10
-4.30338e-11
2.07711e-10
-3.42193e-11
2.45522e-10
-2.82257e-11
2.8184e-10
-2.44931e-11
3.16328e-10
-2.17904e-11
3.49333e-10
-1.83756e-11
3.81868e-10
-1.19134e-11
4.15849e-10
-2.99215e-13
4.53945e-10
1.86232e-11
4.63658e-11
4.99443e-10
6.78632e-13
6.11392e-12
1.09467e-12
1.76145e-12
9.0545e-13
-1.03949e-11
2.53729e-13
-2.8324e-11
-2.67304e-13
-4.97171e-11
2.51447e-13
-7.17502e-11
2.87288e-12
-9.18469e-11
8.65706e-12
-1.08015e-10
1.85286e-11
-1.18988e-10
3.31698e-11
-1.24282e-10
5.29466e-11
-1.24151e-10
7.78722e-11
-1.19463e-10
1.07605e-10
-1.11504e-10
1.41483e-10
-1.0175e-10
1.786e-10
-9.1634e-11
2.1791e-10
-8.23436e-11
2.58356e-10
-7.46655e-11
2.99008e-10
-6.88779e-11
3.39219e-10
-6.47035e-11
3.78764e-10
-6.13352e-11
4.17909e-10
-5.75214e-11
4.5767e-10
-5.1674e-11
4.99559e-10
-4.21884e-11
5.45736e-10
-2.75539e-11
-6.67631e-12
5.98779e-10
1.29951e-12
4.81365e-12
3.53703e-12
-4.76844e-13
6.20497e-12
-1.30634e-11
9.2107e-12
-3.13301e-11
1.28746e-11
-5.33809e-11
1.7819e-11
-7.66944e-11
2.48346e-11
-9.8862e-11
3.47486e-11
-1.17928e-10
4.8307e-11
-1.32546e-10
6.60814e-11
-1.42056e-10
8.84026e-11
-1.46472e-10
1.15324e-10
-1.46384e-10
1.46619e-10
-1.42798e-10
1.81801e-10
-1.36931e-10
2.20186e-10
-1.30019e-10
2.60976e-10
-1.23133e-10
3.03357e-10
-1.17046e-10
3.46617e-10
-1.12138e-10
3.90267e-10
-1.08354e-10
4.34152e-10
-1.0522e-10
4.78537e-10
-1.01907e-10
5.24203e-10
-9.73398e-11
5.72386e-10
-9.03718e-11
6.24777e-10
-7.99444e-11
-6.52889e-11
6.8339e-10
1.78696e-12
3.02588e-12
5.48091e-12
-4.17163e-12
1.04694e-11
-1.80527e-11
1.6489e-11
-3.735e-11
2.36374e-11
-6.05295e-11
3.23021e-11
-8.53588e-11
4.30461e-11
-1.09606e-10
5.64962e-11
-1.31378e-10
7.32429e-11
-1.49292e-10
9.37579e-11
-1.6257e-10
1.18335e-10
-1.71047e-10
1.47053e-10
-1.75102e-10
1.79773e-10
-1.75517e-10
2.16148e-10
-1.73306e-10
2.55674e-10
-1.69545e-10
2.9775e-10
-1.65209e-10
3.41761e-10
-1.61056e-10
3.87166e-10
-1.57543e-10
4.33599e-10
-1.54786e-10
4.80951e-10
-1.52572e-10
5.29445e-10
-1.50401e-10
5.79679e-10
-1.47573e-10
6.32621e-10
-1.43313e-10
6.89573e-10
-1.36896e-10
-1.27798e-10
7.52082e-10
2.15922e-12
8.65783e-13
6.99961e-12
-9.01293e-12
1.38482e-11
-2.4902e-11
2.23118e-11
-4.58141e-11
3.23174e-11
-7.05351e-11
4.40602e-11
-9.71014e-11
5.79128e-11
-1.23458e-10
7.43314e-11
-1.47795e-10
9.37699e-11
-1.6873e-10
1.16609e-10
-1.85409e-10
1.43104e-10
-1.97541e-10
1.73347e-10
-2.05345e-10
2.07262e-10
-2.09431e-10
2.44612e-10
-2.10656e-10
2.85033e-10
-2.09965e-10
3.2808e-10
-2.08256e-10
3.73295e-10
-2.06271e-10
4.20275e-10
-2.04523e-10
4.68747e-10
-2.03258e-10
5.18632e-10
-2.02457e-10
5.70106e-10
-2.01874e-10
6.23627e-10
-2.01094e-10
6.79939e-10
-1.99625e-10
7.40039e-10
-1.96996e-10
-1.92868e-10
8.05109e-10
2.43742e-12
-1.57258e-12
8.16368e-12
-1.47402e-11
1.64766e-11
-3.32157e-11
2.68918e-11
-5.62297e-11
3.92036e-11
-8.28471e-11
5.34523e-11
-1.1135e-10
6.98523e-11
-1.39857e-10
8.8714e-11
-1.66657e-10
1.10373e-10
-1.90388e-10
1.35126e-10
-2.10162e-10
1.63188e-10
-2.25602e-10
1.94655e-10
-2.36811e-10
2.29495e-10
-2.44271e-10
2.67552e-10
-2.48712e-10
3.08568e-10
-2.50981e-10
3.52223e-10
-2.51911e-10
3.98182e-10
-2.5223e-10
4.46147e-10
-2.52488e-10
4.95918e-10
-2.53028e-10
5.47441e-10
-2.5398e-10
6.00852e-10
-2.55286e-10
6.56504e-10
-2.56746e-10
7.14965e-10
-2.58086e-10
7.76999e-10
-2.59031e-10
-2.59386e-10
8.43517e-10
2.63862e-12
-4.21219e-12
9.03408e-12
-2.11367e-11
1.84776e-11
-4.266e-11
3.04232e-11
-6.81759e-11
4.45642e-11
-9.69883e-11
6.08171e-11
-1.27603e-10
7.92652e-11
-1.58305e-10
1.00096e-10
-1.87487e-10
1.23541e-10
-2.13832e-10
1.49823e-10
-2.36443e-10
1.79114e-10
-2.54892e-10
2.11504e-10
-2.69201e-10
2.46991e-10
-2.79757e-10
2.85477e-10
-2.87197e-10
3.26785e-10
-2.92289e-10
3.7069e-10
-2.95816e-10
4.1695e-10
-2.98489e-10
4.6535e-10
-3.00888e-10
5.15748e-10
-3.03425e-10
5.68109e-10
-3.06341e-10
6.22544e-10
-3.0972e-10
6.79325e-10
-3.13526e-10
7.38891e-10
-3.17652e-10
8.01834e-10
-3.21974e-10
-3.26413e-10
8.68861e-10
2.77714e-12
-6.99039e-12
9.66337e-12
-2.8024e-11
1.99584e-11
-5.29559e-11
3.30777e-11
-8.12959e-11
4.86394e-11
-1.1255e-10
6.64614e-11
-1.45425e-10
8.65199e-11
-1.78363e-10
1.08899e-10
-2.09865e-10
1.33739e-10
-2.38672e-10
1.61197e-10
-2.639e-10
1.91403e-10
-2.85098e-10
2.24436e-10
-3.02234e-10
2.60308e-10
-3.15628e-10
2.98961e-10
-3.2585e-10
3.4028e-10
-3.33607e-10
3.84108e-10
-3.39643e-10
4.30275e-10
-3.44657e-10
4.78633e-10
-3.49246e-10
5.29082e-10
-3.53874e-10
5.81605e-10
-3.58865e-10
6.36296e-10
-3.64411e-10
6.93369e-10
-3.706e-10
7.53169e-10
-3.77452e-10
8.1616e-10
-3.84965e-10
-3.93156e-10
8.82903e-10
2.86542e-12
-9.85691e-12
1.00961e-11
-3.52558e-11
2.10111e-11
-6.38718e-11
3.50045e-11
-9.52899e-11
5.16392e-11
-1.29185e-10
7.06565e-11
-1.64442e-10
9.19456e-11
-1.99652e-10
1.15503e-10
-2.33422e-10
1.41395e-10
-2.64563e-10
1.69714e-10
-2.92219e-10
2.00552e-10
-3.15935e-10
2.33972e-10
-3.35652e-10
2.69991e-10
-3.51646e-10
3.08578e-10
-3.64437e-10
3.49659e-10
-3.74688e-10
3.9313e-10
-3.83114e-10
4.38875e-10
-3.90402e-10
4.86792e-10
-3.97163e-10
5.36819e-10
-4.039e-10
5.88953e-10
-4.10999e-10
6.43274e-10
-4.18732e-10
6.99958e-10
-4.27284e-10
7.59281e-10
-4.36774e-10
8.21611e-10
-4.47295e-10
-4.58944e-10
8.87399e-10
2.91357e-12
-1.27716e-11
1.03698e-11
-4.27133e-11
2.17137e-11
-7.52167e-11
3.63305e-11
-1.09907e-10
5.37446e-11
-1.466e-10
7.36382e-11
-1.84335e-10
9.58304e-11
-2.21844e-10
1.20247e-10
-2.57838e-10
1.46886e-10
-2.91201e-10
1.75789e-10
-3.21121e-10
2.07009e-10
-3.47155e-10
2.40588e-10
-3.69232e-10
2.76545e-10
-3.87602e-10
3.14863e-10
-4.02755e-10
3.55497e-10
-4.15321e-10
3.98377e-10
-4.25994e-10
4.43429e-10
-4.35454e-10
4.90587e-10
-4.44321e-10
5.39814e-10
-4.53127e-10
5.91119e-10
-4.62304e-10
6.44575e-10
-4.72188e-10
7.00326e-10
-4.83035e-10
7.58596e-10
-4.95044e-10
8.19684e-10
-5.08383e-10
-5.23214e-10
8.83955e-10
2.93006e-12
-1.57029e-11
1.05155e-11
-5.03e-11
2.21311e-11
-8.68333e-11
3.71628e-11
-1.2494e-10
5.51091e-11
-1.64546e-10
7.5608e-11
-2.04834e-10
9.84229e-11
-2.44658e-10
1.2342e-10
-2.82835e-10
1.50544e-10
-3.18324e-10
1.79787e-10
-3.50364e-10
2.11168e-10
-3.78535e-10
2.4471e-10
-4.02772e-10
2.80422e-10
-4.23314e-10
3.18298e-10
-4.40629e-10
3.58307e-10
-4.5533e-10
4.00408e-10
-4.68094e-10
4.44551e-10
-4.79597e-10
4.90698e-10
-4.90467e-10
5.38829e-10
-5.01258e-10
5.88962e-10
-5.12436e-10
6.41161e-10
-5.24388e-10
6.9555e-10
-5.37423e-10
7.52309e-10
-5.51803e-10
8.11681e-10
-5.67755e-10
-5.85497e-10
8.73963e-10
2.92147e-12
-1.86256e-11
1.05585e-11
-5.79383e-11
2.23171e-11
-9.85929e-11
3.75906e-11
-1.40214e-10
5.58622e-11
-1.82818e-10
7.67369e-11
-2.25709e-10
9.99351e-11
-2.67856e-10
1.25276e-10
-3.08175e-10
1.52655e-10
-3.45703e-10
1.82027e-10
-3.79734e-10
2.13377e-10
-4.09885e-10
2.46706e-10
-4.36101e-10
2.82017e-10
-4.58624e-10
3.19301e-10
-4.77913e-10
3.5854e-10
-4.94569e-10
3.99706e-10
-5.0926e-10
4.4277e-10
-5.22661e-10
4.87708e-10
-5.35405e-10
5.34513e-10
-5.48063e-10
5.83208e-10
-5.61131e-10
6.33849e-10
-5.75028e-10
6.86537e-10
-5.90111e-10
7.4142e-10
-6.06686e-10
7.98694e-10
-6.25028e-10
-6.45399e-10
8.58597e-10
2.89322e-12
-2.15201e-11
1.05193e-11
-6.55657e-11
2.23157e-11
-1.1039e-10
3.7688e-11
-1.55587e-10
5.61117e-11
-2.01242e-10
7.7169e-11
-2.46766e-10
1.00547e-10
-2.91234e-10
1.26026e-10
-3.33653e-10
1.53465e-10
-3.73141e-10
1.8278e-10
-4.09049e-10
2.13931e-10
-4.41034e-10
2.46897e-10
-4.69067e-10
2.81668e-10
-4.93395e-10
3.18235e-10
-5.14479e-10
3.56581e-10
-5.32915e-10
3.96687e-10
-5.49367e-10
4.38535e-10
-5.64508e-10
4.8211e-10
-5.7898e-10
5.27413e-10
-5.93366e-10
5.74465e-10
-6.08182e-10
6.23313e-10
-6.23877e-10
6.74039e-10
-6.40837e-10
7.2676e-10
-6.59407e-10
7.81629e-10
-6.79897e-10
-7.02603e-10
8.38833e-10
2.84943e-12
-2.43708e-11
1.04144e-11
-7.3132e-11
2.21628e-11
-1.2214e-10
3.75158e-11
-1.70941e-10
5.59474e-11
-2.19674e-10
7.70245e-11
-2.67843e-10
1.00409e-10
-3.14618e-10
1.25852e-10
-3.59096e-10
1.5318e-10
-4.00468e-10
1.82279e-10
-4.38148e-10
2.13084e-10
-4.71838e-10
2.45555e-10
-5.01537e-10
2.79669e-10
-5.27509e-10
3.15409e-10
-5.50219e-10
3.52759e-10
-5.70265e-10
3.91703e-10
-5.88311e-10
4.32226e-10
-6.05031e-10
4.7432e-10
-6.21073e-10
5.17984e-10
-6.3703e-10
5.63236e-10
-6.53434e-10
6.10113e-10
-6.70754e-10
6.58677e-10
-6.89401e-10
7.09015e-10
-7.09745e-10
7.61241e-10
-7.32123e-10
-7.56854e-10
8.15493e-10
2.79352e-12
-2.71657e-11
1.02569e-11
-8.05967e-11
2.18875e-11
-1.33772e-10
3.7124e-11
-1.86178e-10
5.54435e-11
-2.37994e-10
7.64039e-11
-2.88804e-10
9.96496e-11
-3.37864e-10
1.24907e-10
-3.84353e-10
1.51978e-10
-4.27538e-10
1.80723e-10
-4.66893e-10
2.11055e-10
-5.02169e-10
2.42915e-10
-5.33397e-10
2.76268e-10
-5.60861e-10
3.11089e-10
-5.85039e-10
3.47357e-10
-6.06532e-10
3.85054e-10
-6.26008e-10
4.24168e-10
-6.44144e-10
4.64686e-10
-6.61591e-10
5.06609e-10
-6.78952e-10
5.49945e-10
-6.9677e-10
5.94718e-10
-7.15527e-10
6.40971e-10
-7.35654e-10
6.88761e-10
-7.57536e-10
7.38166e-10
-7.81527e-10
-8.07964e-10
7.89275e-10
2.72801e-12
-2.98951e-11
1.00574e-11
-8.79276e-11
2.15134e-11
-1.45229e-10
3.65534e-11
-2.01219e-10
5.46613e-11
-2.56103e-10
7.53909e-11
-3.09533e-10
9.83742e-11
-3.60847e-10
1.2332e-10
-4.09298e-10
1.50009e-10
-4.54226e-10
1.78282e-10
-4.95166e-10
2.0803e-10
-5.31916e-10
2.3918e-10
-5.64547e-10
2.71683e-10
-5.93364e-10
3.05505e-10
-6.1886e-10
3.40618e-10
-6.41645e-10
3.77001e-10
-6.62391e-10
4.14637e-10
-6.81779e-10
4.53511e-10
-7.00465e-10
4.93615e-10
-7.19057e-10
5.34951e-10
-7.38105e-10
5.77526e-10
-7.58103e-10
6.21363e-10
-7.7949e-10
6.66491e-10
-8.02664e-10
7.12951e-10
-8.27987e-10
-8.55803e-10
7.6079e-10
2.6551e-12
-3.25516e-11
9.82459e-12
-9.50986e-11
2.10597e-11
-1.56465e-10
3.58376e-11
-2.15998e-10
5.36517e-11
-2.73917e-10
7.40553e-11
-3.29937e-10
9.66728e-11
-3.83464e-10
1.212e-10
-4.33825e-10
1.474e-10
-4.80425e-10
1.75099e-10
-5.22863e-10
2.0417e-10
-5.60986e-10
2.34525e-10
-5.94901e-10
2.66102e-10
-6.24941e-10
2.98857e-10
-6.51614e-10
3.32756e-10
-6.75544e-10
3.67771e-10
-6.97406e-10
4.03877e-10
-7.17886e-10
4.41055e-10
-7.37643e-10
4.79289e-10
-7.57291e-10
5.18568e-10
-7.77384e-10
5.58885e-10
-7.9842e-10
6.0024e-10
-8.20845e-10
6.42637e-10
-8.4506e-10
6.86081e-10
-8.71431e-10
-9.00299e-10
7.30578e-10
2.57632e-12
-3.51293e-11
9.5652e-12
-1.02089e-10
2.05421e-11
-1.67443e-10
3.50044e-11
-2.30461e-10
5.24569e-11
-2.9137e-10
7.24557e-11
-3.49936e-10
9.46211e-11
-4.05629e-10
1.1864e-10
-4.57843e-10
1.44263e-10
-5.06048e-10
1.71301e-10
-5.49901e-10
1.99615e-10
-5.89299e-10
2.29102e-10
-6.24388e-10
2.5969e-10
-6.55528e-10
2.91324e-10
-6.83248e-10
3.2396e-10
-7.0818e-10
3.57565e-10
-7.31009e-10
3.92105e-10
-7.52426e-10
4.27554e-10
-7.73092e-10
4.63885e-10
-7.93622e-10
5.01075e-10
-8.14574e-10
5.39102e-10
-8.36447e-10
5.77945e-10
-8.59688e-10
6.17582e-10
-8.84697e-10
6.57986e-10
-9.11835e-10
-9.41437e-10
6.99124e-10
2.49308e-12
-3.76238e-11
9.28481e-12
-1.08882e-10
1.99735e-11
-1.78133e-10
3.40768e-11
-2.44565e-10
5.11122e-11
-3.08406e-10
7.06414e-11
-3.69465e-10
9.22834e-11
-4.27271e-10
1.15719e-10
-4.81278e-10
1.4069e-10
-5.31019e-10
1.66997e-10
-5.76207e-10
1.94486e-10
-6.16788e-10
2.23047e-10
-6.52948e-10
2.52593e-10
-6.85074e-10
2.83061e-10
-7.13716e-10
3.144e-10
-7.39518e-10
3.46564e-10
-7.63174e-10
3.79515e-10
-7.85377e-10
4.13216e-10
-8.06793e-10
4.47631e-10
-8.28037e-10
4.82724e-10
-8.49666e-10
5.18456e-10
-8.72179e-10
5.54787e-10
-8.9602e-10
5.91672e-10
-9.21581e-10
6.29054e-10
-9.49217e-10
-9.79249e-10
6.66866e-10
2.40638e-12
-4.00316e-11
8.98807e-12
-1.15465e-10
1.93647e-11
-1.88511e-10
3.3074e-11
-2.58276e-10
4.96476e-11
-3.2498e-10
6.86543e-11
-3.88472e-10
8.97146e-11
-4.48331e-10
1.12506e-10
-5.04069e-10
1.36764e-10
-5.55276e-10
1.6228e-10
-6.01722e-10
1.88893e-10
-6.434e-10
2.16478e-10
-6.80532e-10
2.44942e-10
-7.13538e-10
2.74212e-10
-7.42985e-10
3.04226e-10
-7.69532e-10
3.34933e-10
-7.9388e-10
3.66285e-10
-8.16728e-10
3.98235e-10
-8.38743e-10
4.30737e-10
-8.60538e-10
4.63742e-10
-8.82671e-10
4.97198e-10
-9.05635e-10
5.31047e-10
-9.29868e-10
5.65219e-10
-9.55753e-10
5.99636e-10
-9.83634e-10
-1.01381e-09
6.34199e-10
2.31724e-12
-4.23503e-11
8.67887e-12
-1.21828e-10
1.87247e-11
-1.98558e-10
3.20124e-11
-2.71564e-10
4.80885e-11
-3.41057e-10
6.65306e-11
-4.06914e-10
8.69625e-11
-4.68763e-10
1.09061e-10
-5.26167e-10
1.32558e-10
-5.78772e-10
1.57237e-10
-6.264e-10
1.82928e-10
-6.69091e-10
2.09502e-10
-7.07105e-10
2.36854e-10
-7.40889e-10
2.64902e-10
-7.71033e-10
2.93578e-10
-7.98208e-10
3.22821e-10
-8.23123e-10
3.52575e-10
-8.46482e-10
3.82784e-10
-8.68952e-10
4.13392e-10