/*--------------------------------*- C++ -*----------------------------------*\
  =========                 |
  \\      /  F ield         | OpenFOAM: The Open Source CFD Toolbox
   \\    /   O peration     | Website:  https://openfoam.org
    \\  /    A nd           | Version:  13
     \\/     M anipulation  |
\*---------------------------------------------------------------------------*/
FoamFile
{
    format      ascii;
    class       volVectorField;
    location    "2";
    object      U;
}
// * * * * * * * * * * * * * * * * * * * * * * * * * * * * * * * * * * * * * //

dimensions      [0 1 -1 0 0 0 0];

internalField   nonuniform List<vector> 
6440
(
(-0.000394028 -0.00382856 0)
(-0.000557951 -0.00643068 0)
(-0.00206038 -0.00715608 -4.79625e-15)
(-0.0041689 -0.00741044 4.65041e-15)
(-0.00702668 -0.0075225 0)
(-0.0101697 -0.00752411 -8.72372e-15)
(-0.0137588 -0.00763795 8.45949e-15)
(-0.0183408 -0.00743449 0)
(-0.0245695 -0.00720744 0)
(-0.032571 -0.00694328 0)
(-0.0413569 -0.00654891 1.42961e-14)
(-0.0502724 -0.00555169 -2.71524e-14)
(-0.0586459 -0.00430286 1.2944e-14)
(-0.0664059 -0.00294198 0)
(-0.0732815 -0.00163001 -2.37601e-14)
(-0.0793928 -0.000269773 2.28915e-14)
(-0.0842672 0.00104613 0)
(-0.087289 0.0021335 0)
(-0.0876889 0.00268736 0)
(-0.0854468 0.00203443 0)
(-0.0800171 -0.00113591 -2.05638e-14)
(-0.0710032 -0.00711082 4.14072e-14)
(-0.0573979 -0.0141918 -2.16337e-14)
(-0.0387356 -0.0205754 -2.3607e-14)
(-0.0138246 -0.0166461 2.30591e-14)
(-0.00627685 -0.00230702 0)
(-0.0204954 -0.00162803 0)
(-0.0349015 -0.00251082 -3.97353e-15)
(-0.0462631 -0.0043382 3.67017e-15)
(-0.0546479 -0.00604788 0)
(-0.0598992 -0.00759507 -6.74837e-15)
(-0.0645256 -0.00936811 1.31826e-14)
(-0.0697242 -0.0105813 -6.53065e-15)
(-0.0759615 -0.0114415 0)
(-0.0828524 -0.0121789 0)
(-0.0899371 -0.0132358 0)
(-0.0964983 -0.0143993 -1.23766e-14)
(-0.102189 -0.0160327 1.21768e-14)
(-0.106915 -0.0181079 1.20486e-14)
(-0.111007 -0.0205433 -1.19706e-14)
(-0.11409 -0.0227356 0)
(-0.115687 -0.0244492 0)
(-0.115349 -0.0259151 0)
(-0.112579 -0.0278776 0)
(-0.107063 -0.0312322 0)
(-0.0985918 -0.0373203 -2.45401e-14)
(-0.0865774 -0.0467546 2.45741e-14)
(-0.0705804 -0.0582453 0)
(-0.0492305 -0.0647951 -2.48294e-14)
(-0.0176926 -0.0431183 4.58757e-14)
(-0.0089805 0.00578408 0)
(-0.028134 0.011721 0)
(-0.044479 0.0101552 0)
(-0.0550443 0.00569304 0)
(-0.0610886 0.000814277 0)
(-0.0652297 -0.00328121 0)
(-0.0689434 -0.00634414 6.71192e-15)
(-0.07292 -0.00764535 -6.78609e-15)
(-0.0781543 -0.00745714 0)
(-0.0843708 -0.00775557 0)
(-0.0916526 -0.0103575 0)
(-0.0988415 -0.0147723 0)
(-0.105287 -0.020227 0)
(-0.110726 -0.0261429 1.41386e-14)
(-0.11514 -0.0322479 -4.27113e-14)
(-0.118028 -0.0379987 2.85925e-14)
(-0.118985 -0.0429732 0)
(-0.118028 -0.0473301 0)
(-0.115177 -0.0516137 0)
(-0.110231 -0.0565302 0)
(-0.102406 -0.0627672 0)
(-0.0910909 -0.0713635 0)
(-0.0754668 -0.0815067 2.60066e-14)
(-0.0538927 -0.086456 -2.45907e-14)
(-0.020242 -0.0545654 2.24861e-14)
(-0.00976972 0.0168493 0)
(-0.0302572 0.0273754 0)
(-0.045985 0.0236396 -3.40832e-15)
(-0.0546171 0.0150212 3.4366e-15)
(-0.058995 0.00583699 0)
(-0.063287 -0.00220687 -6.82956e-15)
(-0.0655874 -0.00681916 6.89304e-15)
(-0.0669606 -0.00748347 0)
(-0.069025 -0.00513462 1.52981e-14)
(-0.0738264 -0.00232888 -1.65993e-14)
(-0.0819711 -0.00287252 1.78374e-14)
(-0.0912748 -0.00850443 -3.70743e-14)
(-0.0989261 -0.016848 1.88127e-14)
(-0.104367 -0.0254573 0)
(-0.108261 -0.0335113 0)
(-0.111104 -0.0414043 0)
(-0.112152 -0.0488313 3.80305e-14)
(-0.111395 -0.0556882 -1.005e-19)
(-0.109325 -0.061999 -3.67563e-14)
(-0.105252 -0.0678748 0)
(-0.0987512 -0.0742313 0)
(-0.0889221 -0.0814507 3.06439e-14)
(-0.0751105 -0.0903727 -2.68839e-14)
(-0.0553363 -0.0939017 -2.44918e-14)
(-0.0215461 -0.0583746 4.49173e-14)
(-0.00979318 0.0306001 0)
(-0.0312584 0.0449597 0)
(-0.0475412 0.0378238 -3.18802e-15)
(-0.0574825 0.0238863 3.30666e-15)
(-0.0649975 0.0079932 0)
(-0.0719096 -0.00696065 -6.24773e-15)
(-0.0734818 -0.0159282 6.26829e-15)
(-0.0724307 -0.0186644 0)
(-0.0721682 -0.0161565 1.46365e-14)
(-0.0758139 -0.010285 -1.65005e-14)
(-0.0849384 -0.006257 1.80109e-14)
(-0.0953977 -0.00966507 -3.5508e-14)
(-0.100092 -0.0176767 1.66713e-14)
(-0.100315 -0.0256887 0)
(-0.0991285 -0.0326316 3.06612e-14)
(-0.0973762 -0.039111 -2.98239e-14)
(-0.0947238 -0.0456927 2.91545e-14)
(-0.0917727 -0.0523939 -6.81525e-20)
(-0.088949 -0.0591524 -2.83594e-14)
(-0.0860989 -0.0660778 0)
(-0.0820402 -0.0732351 2.76934e-14)
(-0.0761231 -0.0812194 1.74276e-19)
(-0.0675229 -0.0891674 -2.51218e-14)
(-0.0534572 -0.0917296 -2.31572e-14)
(-0.0233775 -0.0560333 2.27718e-14)
(-0.00968363 0.0475018 0)
(-0.0329017 0.0649223 0)
(-0.0518972 0.0535977 -2.92668e-15)
(-0.0663211 0.0341696 3.06028e-15)
(-0.0787018 0.0106473 0)
(-0.0889533 -0.01341 -5.48037e-15)
(-0.0902974 -0.029199 5.31069e-15)
(-0.0879704 -0.0360099 0)
(-0.0862468 -0.0351297 1.21104e-14)
(-0.0882281 -0.0278139 -1.37698e-14)
(-0.0938405 -0.0181474 1.59049e-14)
(-0.10003 -0.016665 -3.23986e-14)
(-0.0992156 -0.022481 1.47864e-14)
(-0.0939183 -0.0281973 0)
(-0.088466 -0.0327138 -2.5914e-14)
(-0.0834224 -0.0369353 2.48788e-14)
(-0.0784592 -0.0415573 2.41679e-14)
(-0.0739983 -0.0465979 -4.2474e-20)
(-0.0706992 -0.0520817 -2.38365e-14)
(-0.0683473 -0.0582064 0)
(-0.0661189 -0.0652364 -2.41551e-14)
(-0.063218 -0.0734348 4.8167e-14)
(-0.0603574 -0.0824981 -2.33047e-14)
(-0.0531422 -0.0860505 -2.3445e-14)
(-0.0259687 -0.0522109 2.32538e-14)
(-0.0104599 0.0684428 0)
(-0.0379147 0.0876483 0)
(-0.0624902 0.0706226 -2.56989e-15)
(-0.0827141 0.0453816 2.68545e-15)
(-0.0977661 0.0153266 0)
(-0.10947 -0.0169327 -4.83637e-15)
(-0.109641 -0.0395655 4.52852e-15)
(-0.105754 -0.0514003 0)
(-0.101917 -0.0538978 9.96167e-15)
(-0.10097 -0.0485124 -1.12634e-14)
(-0.102106 -0.0382311 1.32542e-14)
(-0.103251 -0.0339955 -2.7962e-14)
(-0.0982944 -0.0375631 1.28626e-14)
(-0.0896798 -0.0404344 0)
(-0.0812804 -0.0414038 0)
(-0.0739425 -0.0418312 0)
(-0.0672427 -0.0428399 2.09256e-14)
(-0.0615877 -0.0446 -9.78333e-21)
(-0.0575469 -0.0471687 -2.10964e-14)
(-0.0551636 -0.0510285 0)
(-0.0540911 -0.0566838 0)
(-0.0548818 -0.0645204 2.26997e-14)
(-0.0577982 -0.0721847 -2.4032e-14)
(-0.0563076 -0.0769943 -2.43749e-14)
(-0.0284067 -0.046616 2.42901e-14)
(-0.0130918 0.0950985 0)
(-0.0486103 0.11446 0)
(-0.0811832 0.0901449 -2.14972e-15)
(-0.106922 0.0581536 2.253e-15)
(-0.12306 0.021472 0)
(-0.134077 -0.0176456 -4.19049e-15)
(-0.131788 -0.0460352 3.88359e-15)
(-0.125475 -0.0630666 0)
(-0.118854 -0.0706474 8.32026e-15)
(-0.113901 -0.0699384 -9.38649e-15)
(-0.109704 -0.0635083 1.10647e-14)
(-0.104893 -0.0605459 -2.37545e-14)
(-0.0951993 -0.0626972 1.10967e-14)
(-0.0834391 -0.0623752 0)
(-0.0726844 -0.0588615 0)
(-0.0637762 -0.0540071 0)
(-0.0560778 -0.0496632 1.83737e-14)
(-0.0497672 -0.0463423 3.50309e-20)
(-0.0453817 -0.0443301 -1.89717e-14)
(-0.0432793 -0.0443842 0)
(-0.0445764 -0.0476143 0)
(-0.0496077 -0.0535003 2.27338e-14)
(-0.0576563 -0.0617703 -2.44679e-14)
(-0.0610403 -0.0649112 -2.83315e-14)
(-0.0284037 -0.0422852 5.08655e-14)
(-0.0179195 0.129829 0)
(-0.0640521 0.148022 0)
(-0.104723 0.116153 0)
(-0.135261 0.0764989 0)
(-0.152646 0.0315678 4.35408e-15)
(-0.162244 -0.0152735 -3.60414e-15)
(-0.157067 -0.0498755 3.32537e-15)
(-0.147569 -0.0721457 -3.33904e-15)
(-0.137326 -0.0851111 7.11064e-15)
(-0.127766 -0.0904356 -1.09408e-19)
(-0.117196 -0.0902235 -8.21438e-20)
(-0.104487 -0.0912959 -1.00291e-14)
(-0.0883263 -0.0934189 -9.37523e-15)
(-0.0725451 -0.0904159 1.73982e-14)
(-0.059357 -0.0825765 -2.49524e-14)
(-0.0491952 -0.0719892 1.62444e-14)
(-0.0410686 -0.0612216 0)
(-0.0348802 -0.0513591 1.63899e-14)
(-0.0309691 -0.0430201 -1.71421e-14)
(-0.0305281 -0.0376953 1.83081e-14)
(-0.0350432 -0.03648 1.38587e-19)
(-0.0446578 -0.04018 2.05663e-19)
(-0.0569718 -0.0466147 -2.49957e-14)
(-0.0598087 -0.0534696 0)
(-0.0247457 -0.0356806 -2.72924e-14)
(-0.0244388 0.173786 0)
(-0.0817814 0.190395 0)
(-0.129605 0.150843 0)
(-0.164781 0.101633 0)
(-0.183891 0.0453272 -3.79843e-15)
(-0.192057 -0.0115433 3.10598e-15)
(-0.183607 -0.0532578 -2.87376e-15)
(-0.170428 -0.0809089 2.89492e-15)
(-0.156322 -0.0988435 0)
(-0.141599 -0.109513 -6.92765e-15)
(-0.123363 -0.11561 7.24649e-20)
(-0.101284 -0.121728 8.45747e-15)
(-0.0779461 -0.124656 0)
(-0.0571452 -0.120059 -7.3147e-15)
(-0.0407469 -0.109073 2.12433e-14)
(-0.0287942 -0.0935281 -1.40178e-14)
(-0.0201737 -0.0763442 1.40968e-14)
(-0.0145586 -0.0591873 -1.4516e-14)
(-0.0121849 -0.0431142 0)
(-0.0146221 -0.0303911 -1.69358e-14)
(-0.0226479 -0.023316 3.69275e-14)
(-0.0350144 -0.0229491 -3.87716e-14)
(-0.0478366 -0.0289465 2.10301e-14)
(-0.0489961 -0.0377472 0)
(-0.0190832 -0.0258851 -2.7385e-14)
(-0.032557 0.228006 0)
(-0.0992039 0.242454 0)
(-0.152618 0.193848 0)
(-0.193193 0.131973 0)
(-0.214697 0.0604761 3.40677e-15)
(-0.220874 -0.00991003 -2.70867e-15)
(-0.208807 -0.0601142 2.50868e-15)
(-0.191533 -0.093303 -2.54023e-15)
(-0.173073 -0.115259 5.44968e-15)
(-0.15242 -0.129855 -7.68636e-20)
(-0.125944 -0.141253 -6.94834e-15)
(-0.0947646 -0.15035 0)
(-0.0647212 -0.152926 -6.40025e-15)
(-0.0385552 -0.147412 1.22256e-14)
(-0.0178866 -0.134731 -1.79947e-14)
(-0.0029056 -0.115917 1.2032e-14)
(0.00703565 -0.0934151 0)
(0.0122458 -0.0692007 1.28108e-14)
(0.0124313 -0.0447204 -1.38365e-14)
(0.00665717 -0.0227417 1.56037e-14)
(-0.00413651 -0.00921772 2.0179e-19)
(-0.0175543 -0.00335735 -1.58222e-14)
(-0.0300333 -0.00271405 0)
(-0.0292453 -0.0150136 0)
(-0.00996706 -0.00986458 0)
(-0.0406218 0.292243 0)
(-0.113658 0.30312 0)
(-0.171787 0.242735 1.0249e-15)
(-0.218622 0.164316 -1.18466e-15)
(-0.242674 0.0734652 0)
(-0.246043 -0.0148223 2.39237e-15)
(-0.229839 -0.0750314 -4.44254e-15)
(-0.207527 -0.114025 2.2601e-15)
(-0.183856 -0.139246 0)
(-0.156082 -0.15617 0)
(-0.121419 -0.169841 0)
(-0.0839874 -0.177589 5.59995e-15)
(-0.0485977 -0.177591 -5.27128e-15)
(-0.0176014 -0.1705 -5.11084e-15)
(0.00785606 -0.156711 -5.07826e-15)
(0.0270828 -0.136276 1.03108e-14)
(0.0396784 -0.110237 1.06627e-14)
(0.0455331 -0.0800908 -1.13029e-14)
(0.0440333 -0.0475751 0)
(0.0349676 -0.0155919 0)
(0.021419 0.00591718 1.32164e-14)
(0.00845503 0.0205028 -1.31658e-14)
(-0.0050158 0.0288887 0)
(-0.00513861 0.0244081 1.6571e-14)
(0.000978988 0.0124659 -3.67323e-14)
(-0.0464508 0.362823 0)
(-0.122993 0.369462 0)
(-0.186176 0.29468 -8.97882e-16)
(-0.23994 0.195884 1.07248e-15)
(-0.265845 0.0813281 2.87782e-15)
(-0.265123 -0.0294531 -4.29009e-15)
(-0.244035 -0.101535 3.9766e-15)
(-0.215491 -0.146693 -2.03492e-15)
(-0.184921 -0.174453 0)
(-0.148925 -0.192518 4.92457e-15)
(-0.107662 -0.203616 -4.93753e-15)
(-0.0669294 -0.205564 -4.566e-15)
(-0.0282816 -0.200451 2.49187e-20)
(0.00620692 -0.189696 8.58869e-15)
(0.0358653 -0.173728 -1.29416e-14)
(0.0597577 -0.152114 8.8471e-15)
(0.076454 -0.12416 0)
(0.0849405 -0.0899843 0)
(0.0837833 -0.0508292 0)
(0.0726836 -0.0105555 1.1986e-14)
(0.057083 0.0215857 -1.11201e-14)
(0.0429345 0.0471711 0)
(0.0270674 0.0682858 0)
(0.0260375 0.0706315 -1.24224e-14)
(0.017659 0.0515692 -1.27685e-19)
(-0.0486702 0.435877 0)
(-0.126864 0.439067 0)
(-0.196351 0.345508 8.05477e-16)
(-0.2558 0.224757 -9.93629e-16)
(-0.283007 0.0839054 -2.72638e-15)
(-0.276445 -0.0544412 3.89045e-15)
(-0.249212 -0.14039 -3.60512e-15)
(-0.212832 -0.192253 1.85444e-15)
(-0.173746 -0.222114 0)
(-0.129792 -0.239068 -4.2303e-15)
(-0.0850478 -0.242947 3.98874e-15)
(-0.0420988 -0.236436 3.76791e-15)
(-0.00208571 -0.223839 -3.6601e-15)
(0.0343874 -0.206873 -3.63772e-15)
(0.0668972 -0.186518 -3.68381e-15)
(0.0947738 -0.162232 7.61701e-15)
(0.116326 -0.132799 8.03912e-15)
(0.129615 -0.0964088 -8.73021e-15)
(0.131972 -0.0532597 0)
(0.121463 -0.00752481 -9.99739e-15)
(0.104746 0.0367138 1.86826e-14)
(0.0882556 0.0769985 -8.98883e-15)
(0.068085 0.112692 0)
(0.0643632 0.130521 9.81219e-15)
(0.0436314 0.107137 -1.14632e-14)
(-0.047001 0.507612 3.45403e-16)
(-0.124248 0.507761 3.23409e-16)
(-0.19956 0.393536 -7.42256e-16)
(-0.264018 0.251574 1.88259e-15)
(-0.293299 0.0837558 4.51745e-21)
(-0.277857 -0.0883492 -1.78596e-15)
(-0.243076 -0.190576 1.65096e-15)
(-0.197645 -0.249589 1.7082e-15)
(-0.149592 -0.280564 -3.63306e-15)
(-0.0999328 -0.291991 3.53563e-15)
(-0.053222 -0.286043 -3.28291e-15)
(-0.00940758 -0.270316 0)
(0.0311027 -0.248713 -3.10429e-15)
(0.0684775 -0.22401 6.21697e-15)
(0.102614 -0.196879 -3.17204e-15)
(0.133203 -0.167627 6.58003e-15)
(0.15897 -0.13497 -6.98837e-15)
(0.17805 -0.0969104 0)
(0.186652 -0.0517047 0)
(0.181289 -0.00456081 8.28915e-15)
(0.166376 0.0502329 2.1573e-19)
(0.146793 0.107542 -7.37686e-15)
(0.120703 0.163871 0)
(0.11393 0.19867 0)
(0.0781314 0.183791 -8.90656e-15)
(-0.0425398 0.574304 0)
(-0.115472 0.577561 0)
(-0.19488 0.440744 0)
(-0.260924 0.279834 0)
(-0.289311 0.0835869 0)
(-0.266414 -0.129414 0)
(-0.223247 -0.251598 0)
(-0.168144 -0.316846 0)
(-0.112763 -0.346529 3.15077e-15)
(-0.0610228 -0.347842 -2.89247e-15)
(-0.0130934 -0.331803 0)
(0.0307838 -0.305892 0)
(0.0714339 -0.275229 0)
(0.109281 -0.241801 0)
(0.14445 -0.206773 0)
(0.17675 -0.17023 0)
(0.205514 -0.131963 -6.07854e-15)
(0.229689 -0.0901571 1.32897e-14)
(0.245685 -0.0431095 -1.50374e-14)
(0.249213 0.00396067 6.92791e-15)
(0.240473 0.0652428 6.45612e-15)
(0.221501 0.139176 -6.09627e-15)
(0.188026 0.219673 -5.80912e-15)
(0.176654 0.281509 6.02058e-15)
(0.122851 0.28934 -6.74238e-15)
(-0.0364985 0.632616 0)
(-0.104436 0.644471 0)
(-0.181925 0.488818 6.59913e-16)
(-0.255003 0.310092 -8.7477e-16)
(-0.275038 0.0823185 0)
(-0.239867 -0.178962 1.55646e-15)
(-0.188376 -0.322133 -2.87489e-15)
(-0.125063 -0.393306 1.3955e-15)
(-0.0665112 -0.414829 2.5777e-15)
(-0.0137205 -0.405105 -2.40634e-15)
(0.0339434 -0.378374 -2.33113e-15)
(0.0777268 -0.343001 4.6055e-15)
(0.118426 -0.303327 -2.31167e-15)
(0.15687 -0.261331 -2.34427e-15)
(0.193076 -0.217761 -2.40836e-15)
(0.22691 -0.172652 5.01713e-15)
(0.258031 -0.126291 0)
(0.286396 -0.0776176 5.79349e-15)
(0.309302 -0.026413 -6.53256e-15)
(0.322619 0.0225382 0)
(0.32425 0.0868677 5.34558e-15)
(0.311887 0.17306 -9.93593e-15)
(0.276298 0.278917 4.73276e-15)
(0.263711 0.369905 4.69424e-15)
(0.187151 0.396908 -1.00859e-14)
(-0.0264436 0.679162 2.70307e-16)
(-0.0902663 0.6927 2.59275e-16)
(-0.165731 0.536106 -6.31461e-16)
(-0.236395 0.3438 1.73345e-15)
(-0.245421 0.0722999 -4.71987e-15)
(-0.197503 -0.239313 1.47164e-15)
(-0.138557 -0.401733 0)
(-0.0722746 -0.470426 2.34252e-15)
(-0.013327 -0.48089 -2.12661e-15)
(0.0387225 -0.460502 -2.03601e-15)
(0.0856813 -0.424242 2.00189e-15)
(0.129249 -0.38078 0)
(0.1706 -0.333585 2.01939e-15)
(0.210199 -0.28425 -2.05636e-15)
(0.248301 -0.232622 4.23096e-15)
(0.284414 -0.178798 -9.86674e-21)
(0.318616 -0.122439 -9.33524e-15)
(0.350721 -0.0639259 5.04431e-15)
(0.379418 -0.00345676 -5.66726e-15)
(0.40159 0.0523568 2.00605e-19)
(0.414979 0.120247 8.94e-15)
(0.41713 0.212496 -4.05816e-15)
(0.385605 0.345344 0)
(0.373056 0.48518 0)
(0.252634 0.638045 0)
(-0.013667 0.712959 0)
(-0.0691003 0.744097 0)
(-0.138292 0.58304 0)
(-0.204709 0.37254 0)
(-0.192022 0.0465986 0)
(-0.138471 -0.313363 0)
(-0.077478 -0.483853 -1.11347e-15)
(-0.0142003 -0.541782 9.59666e-16)
(0.0426364 -0.541063 1.79931e-15)
(0.0924185 -0.510737 -1.75592e-15)
(0.138092 -0.467307 -1.75041e-15)
(0.181726 -0.418343 1.75435e-15)
(0.224192 -0.366445 0)
(0.266096 -0.312069 -1.81098e-15)
(0.30737 -0.25481 1.85891e-15)
(0.347751 -0.193708 0)
(0.386762 -0.127917 0)
(0.424379 -0.0573601 4.38016e-15)
(0.458964 0.0173706 -9.68335e-15)
(0.489461 0.0897071 4.37639e-15)
(0.515483 0.167673 3.80061e-15)
(0.541056 0.262045 -6.74179e-15)
(0.532694 0.401519 3.01238e-15)
(0.552415 0.562906 0)
(0.421459 0.74782 -2.75295e-15)
(-0.00532626 0.737632 0)
(-0.047507 0.773451 0)
(-0.102268 0.632938 6.37553e-16)
(-0.158998 0.414749 -1.02292e-15)
(-0.117311 -0.00491973 0)
(-0.0668721 -0.398174 1.1797e-15)
(-0.0123154 -0.55851 -1.81529e-15)
(0.045636 -0.604334 8.15035e-16)
(0.0975993 -0.592435 1.56636e-15)
(0.143988 -0.554678 -1.55049e-15)
(0.187907 -0.507045 0)
(0.23156 -0.455732 1.56688e-15)
(0.275848 -0.402627 -1.58024e-15)
(0.320712 -0.346888 -1.60575e-15)
(0.366226 -0.287514 -1.64135e-15)
(0.412168 -0.22308 3.38529e-15)
(0.458249 -0.151936 0)
(0.504356 -0.0724313 3.76074e-15)
(0.548813 0.0170157 -4.11446e-15)
(0.589767 0.113512 0)
(0.62744 0.220798 0)
(0.675565 0.341762 0)
(0.688562 0.519411 0)
(0.816021 0.721918 2.35769e-15)
(0.478516 1.27906 -4.11446e-15)
(0.00195141 0.756619 0)
(-0.0328591 0.792558 0)
(-0.0702512 0.654783 0)
(-0.117114 0.429379 0)
(-0.0499651 -0.0847112 0)
(0.00423072 -0.472089 0)
(0.0528893 -0.62227 0)
(0.10391 -0.655758 0)
(0.150344 -0.634595 0)
(0.193197 -0.591946 0)
(0.236121 -0.542642 0)
(0.280693 -0.492001 0)
(0.327078 -0.439994 0)
(0.375377 -0.385835 0)
(0.425391 -0.328016 0)
(0.477079 -0.265195 0)
(0.530509 -0.195777 0)
(0.586382 -0.118015 0)
(0.645546 -0.0298616 0)
(0.707581 0.0693536 0)
(0.769403 0.185913 0)
(0.857758 0.328862 0)
(0.920726 0.526615 0)
(1.18387 0.746097 0)
(1.38527 1.24804 0)
(0.0129232 0.768025 0)
(-0.0223886 0.807284 0)
(-0.0512079 0.64889 0)
(-0.0922445 0.436212 0)
(-0.00194389 -0.130111 0)
(0.061609 -0.524446 0)
(0.10638 -0.670992 0)
(0.150586 -0.699047 0)
(0.192334 -0.675025 0)
(0.233453 -0.632441 0)
(0.276521 -0.585222 0)
(0.322707 -0.536998 0)
(0.372058 -0.488011 0)
(0.424022 -0.436748 0)
(0.478502 -0.381872 0)
(0.53566 -0.322203 0)
(0.595895 -0.256631 0)
(0.659947 -0.183917 0)
(0.72969 -0.103146 0)
(0.807805 -0.0138496 0)
(0.890918 0.0820858 0)
(1.00253 0.195993 0)
(1.12571 0.345737 0)
(1.3456 0.485882 0)
(1.71758 0.835175 0)
(0.0130482 0.771857 0)
(-0.0164606 0.818668 0)
(-0.0519928 0.649342 0)
(-0.0814119 0.479387 0)
(0.0353457 -0.173257 0)
(0.108646 -0.577629 0)
(0.151697 -0.714862 0)
(0.190441 -0.736381 0)
(0.228676 -0.710612 0)
(0.268936 -0.669775 0)
(0.31335 -0.625643 0)
(0.362081 -0.58122 0)
(0.414497 -0.535597 0)
(0.470401 -0.487656 0)
(0.529537 -0.436115 0)
(0.592006 -0.379916 0)
(0.658499 -0.318223 0)
(0.730106 -0.25027 0)
(0.808316 -0.175313 0)
(0.896321 -0.0933493 0)
(0.994429 -0.00536686 0)
(1.10468 0.0843359 0)
(1.23954 0.176722 0)
(1.38716 0.243158 0)
(1.64278 0.359739 0)
(0.0117596 0.770905 0)
(-0.0174143 0.830202 0)
(-0.0616116 0.662595 0)
(-0.0716545 0.518017 0)
(0.0640315 -0.226184 0)
(0.142604 -0.625136 0)
(0.184827 -0.751679 0)
(0.220461 -0.769173 0)
(0.257453 -0.744645 0)
(0.29892 -0.707745 0)
(0.345513 -0.668372 0)
(0.397029 -0.628194 0)
(0.452961 -0.586883 0)
(0.512532 -0.543081 0)
(0.575672 -0.495779 0)
(0.642671 -0.444237 0)
(0.714173 -0.387904 0)
(0.791383 -0.326466 0)
(0.875776 -0.259798 0)
(0.969063 -0.188064 0)
(1.07378 -0.113019 0)
(1.18809 -0.0358258 0)
(1.31591 0.0403984 0)
(1.44831 0.0998564 0)
(1.60102 0.155326 0)
(0.00839944 0.770078 0)
(-0.0225086 0.847255 0)
(-0.0726513 0.700533 0)
(-0.0726327 0.614881 0)
(0.0870977 -0.296845 0)
(0.164633 -0.672601 0)
(0.205951 -0.786267 0)
(0.241426 -0.801429 0)
(0.279996 -0.780042 0)
(0.323939 -0.748089 0)
(0.373712 -0.71359 0)
(0.428578 -0.678262 0)
(0.487614 -0.641211 0)
(0.550598 -0.601621 0)
(0.617347 -0.558694 0)
(0.688089 -0.511912 0)
(0.763529 -0.461026 0)
(0.844712 -0.406014 0)
(0.932968 -0.347163 0)
(1.02951 -0.285069 0)
(1.13544 -0.220849 0)
(1.25144 -0.15692 0)
(1.3768 -0.0939107 0)
(1.51025 -0.0351226 0)
(1.65417 0.0216272 0)
(-0.00121704 0.769983 0)
(-0.0272111 0.868996 0)
(-0.0764713 0.729309 0)
(-0.0341422 0.443136 0)
(0.108124 -0.398671 0)
(0.175958 -0.723942 0)
(0.217107 -0.822931 0)
(0.255198 -0.836231 0)
(0.297158 -0.818659 0)
(0.34486 -0.791799 0)
(0.39802 -0.762477 0)
(0.456062 -0.731645 0)
(0.518475 -0.699035 0)
(0.584554 -0.663742 0)
(0.654286 -0.625229 0)
(0.728032 -0.583259 0)
(0.806428 -0.537824 0)
(0.890397 -0.489131 0)
(0.980991 -0.437606 0)
(1.07913 -0.384037 0)
(1.18552 -0.329477 0)
(1.30011 -0.275523 0)
(1.42351 -0.223893 0)
(1.55518 -0.176638 0)
(1.69537 -0.133028 0)
(-0.0134461 0.772157 0)
(-0.0260052 0.889798 0)
(-0.0699286 0.771948 0)
(0.0105691 0.233075 0)
(0.120613 -0.495298 0)
(0.178326 -0.775939 0)
(0.221136 -0.862388 0)
(0.263471 -0.874828 0)
(0.309874 -0.86121 0)
(0.361535 -0.839409 0)
(0.418523 -0.814867 0)
(0.480087 -0.788695 0)
(0.54538 -0.760213 0)
(0.614267 -0.728999 0)
(0.686648 -0.69475 0)
(0.762781 -0.657407 0)
(0.84333 -0.617151 0)
(0.929143 -0.574353 0)
(1.02107 -0.529557 0)
(1.11975 -0.483524 0)
(1.22545 -0.437259 0)
(1.33842 -0.39212 0)
(1.45818 -0.34961 0)
(1.58467 -0.311626 0)
(1.71714 -0.280098 0)
(-0.0158793 0.778402 0)
(-0.0163674 0.906508 0)
(-0.0527007 0.790094 0)
(0.0431113 0.0790933 0)
(0.123982 -0.578478 0)
(0.174824 -0.82708 0)
(0.220303 -0.904214 0)
(0.267301 -0.917516 0)
(0.318457 -0.908162 0)
(0.374713 -0.891281 0)
(0.435523 -0.871446 0)
(0.500326 -0.849239 0)
(0.568718 -0.824625 0)
(0.640128 -0.797203 0)
(0.714629 -0.766895 0)
(0.792624 -0.733867 0)
(0.874704 -0.698437 0)
(0.961625 -0.661068 0)
(1.05411 -0.622358 0)
(1.15261 -0.583046 0)
(1.25728 -0.544003 0)
(1.36767 -0.506314 0)
(1.48393 -0.471126 0)
(1.60534 -0.439954 0)
(1.73054 -0.413947 0)
(-0.0160887 0.794178 0)
(-0.00211974 0.922357 0)
(-0.0309071 0.766085 0)
(0.0575941 -0.037521 0)
(0.118857 -0.652918 0)
(0.166833 -0.877794 0)
(0.215358 -0.949388 0)
(0.26732 -0.965069 0)
(0.323825 -0.96033 0)
(0.384668 -0.948019 0)
(0.449576 -0.932045 0)
(0.517828 -0.913467 0)
(0.588745 -0.892084 0)
(0.662353 -0.867943 0)
(0.738693 -0.841176 0)
(0.818085 -0.812059 0)
(0.901163 -0.781015 0)
(0.988647 -0.74856 0)
(1.08115 -0.715291 0)
(1.17903 -0.681878 0)
(1.28219 -0.64907 0)
(1.39057 -0.617639 0)
(1.50345 -0.588447 0)
(1.62072 -0.562171 0)
(1.74211 -0.539265 0)
(-0.0179144 0.823501 0)
(-0.00177829 0.917777 0)
(0.00377311 0.732476 0)
(0.0460649 -0.136749 0)
(0.103646 -0.720954 0)
(0.153183 -0.929062 0)
(0.206468 -0.999653 0)
(0.264641 -1.01903 0)
(0.326926 -1.01855 0)
(0.392814 -1.00982 0)
(0.461564 -0.996971 0)
(0.532744 -0.980963 0)
(0.606221 -0.962238 0)
(0.681683 -0.940878 0)
(0.75935 -0.91716 0)
(0.839707 -0.891505 0)
(0.923348 -0.864392 0)
(1.01095 -0.836351 0)
(1.1031 -0.807946 0)
(1.20005 -0.779769 0)
(1.3018 -0.752398 0)
(1.40787 -0.726403 0)
(1.51838 -0.702255 0)
(1.63307 -0.680364 0)
(1.7515 -0.660733 0)
(-0.0321146 0.871575 0)
(-0.0267574 0.937803 0)
(0.0145588 0.794799 0)
(0.0125468 -0.22517 0)
(0.0778669 -0.786965 0)
(0.134255 -0.985669 0)
(0.19527 -1.05808 0)
(0.260866 -1.08088 0)
(0.329354 -1.0832 0)
(0.399931 -1.07669 0)
(0.472387 -1.06562 0)
(0.54641 -1.05153 0)
(0.621708 -1.03468 0)
(0.698574 -1.01548 0)
(0.777241 -0.994343 0)
(0.85813 -0.971711 0)
(0.941907 -0.948095 0)
(1.02926 -0.924014 0)
(1.12072 -0.899985 0)
(1.21658 -0.876503 0)
(1.31671 -0.854007 0)
(1.42111 -0.832892 0)
(1.52931 -0.813474 0)
(1.64162 -0.795842 0)
(1.7585 -0.779945 0)
(-0.0534603 0.955031 0)
(-0.0647241 0.992227 0)
(-0.0204472 0.828521 0)
(-0.0323468 -0.306076 0)
(0.0446814 -0.855404 0)
(0.112682 -1.05271 0)
(0.184129 -1.12687 0)
(0.25788 -1.15104 0)
(0.332447 -1.15403 0)
(0.407602 -1.14806 0)
(0.48313 -1.13773 0)
(0.559183 -1.12439 0)
(0.63609 -1.10878 0)
(0.713874 -1.09124 0)
(0.79295 -1.07221 0)
(0.873918 -1.05219 0)
(0.957429 -1.03169 0)
(1.04417 -1.01118 0)
(1.13468 -0.99113 0)
(1.22923 -0.971936 0)
(1.32785 -0.953941 0)
(1.43019 -0.937413 0)
(1.53659 -0.922475 0)
(1.6472 -0.909224 0)
(1.76214 -0.897494 0)
(-0.0680748 1.06402 0)
(-0.102942 1.06651 0)
(-0.0776277 0.825033 0)
(-0.0822921 -0.384291 0)
(0.00974527 -0.936501 0)
(0.0930081 -1.13304 0)
(0.175867 -1.20656 0)
(0.257668 -1.22899 0)
(0.337948 -1.23036 0)
(0.416732 -1.22325 0)
(0.49474 -1.21224 0)
(0.572398 -1.19898 0)
(0.649952 -1.18391 0)
(0.728021 -1.16749 0)
(0.807064 -1.15018 0)
(0.887627 -1.13243 0)
(0.970438 -1.11472 0)
(1.05621 -1.09748 0)
(1.14548 -1.0811 0)
(1.23855 -1.06591 0)
(1.33537 -1.05215 0)
(1.43604 -1.03997 0)
(1.54038 -1.0295 0)
(1.64893 -1.02066 0)
(1.76257 -1.01335 0)
(-0.0756753 1.18463 0)
(-0.137624 1.13608 0)
(-0.141794 0.798774 0)
(-0.129142 -0.472419 0)
(-0.0184928 -1.03472 0)
(0.0799542 -1.2271 0)
(0.173565 -1.29624 0)
(0.262588 -1.31368 0)
(0.347314 -1.31102 0)
(0.428865 -1.30103 0)
(0.50822 -1.28837 0)
(0.586308 -1.27425 0)
(0.664005 -1.25922 0)
(0.741711 -1.24357 0)
(0.820028 -1.22766 0)
(0.899672 -1.21192 0)
(0.981356 -1.19676 0)
(1.06579 -1.18256 0)
(1.15353 -1.16962 0)
(1.24485 -1.15821 0)
(1.33987 -1.14848 0)
(1.43835 -1.14055 0)
(1.54078 -1.13443 0)
(1.64758 -1.13011 0)
(1.7591 -1.12751 0)
(-0.0763432 1.30342 0)
(-0.161689 1.21235 0)
(-0.204947 0.798205 0)
(-0.160321 -0.565235 0)
(-0.0333662 -1.14757 0)
(0.0786451 -1.33345 0)
(0.180779 -1.39393 0)
(0.274811 -1.40326 0)
(0.36218 -1.3943 0)
(0.444711 -1.38004 0)
(0.524202 -1.36468 0)
(0.601908 -1.3493 0)
(0.67859 -1.33391 0)
(0.755144 -1.31873 0)
(0.832204 -1.30403 0)
(0.9104 -1.29014 0)
(0.990499 -1.27738 0)
(1.07322 -1.26604 0)
(1.15911 -1.25639 0)
(1.24848 -1.2486 0)
(1.34132 -1.24277 0)
(1.4378 -1.23896 0)
(1.53791 -1.2372 0)
(1.64231 -1.23743 0)
(1.75203 -1.23961 0)
(-0.0716617 1.41459 0)
(-0.167533 1.28705 0)
(-0.248921 0.808782 0)
(-0.164529 -0.640566 0)
(-0.027014 -1.27011 0)
(0.093713 -1.44792 0)
(0.200462 -1.49633 0)
(0.296169 -1.49494 0)
(0.38352 -1.47794 0)
(0.46521 -1.45841 0)
(0.543203 -1.43997 0)
(0.619058 -1.42289 0)
(0.694012 -1.40703 0)
(0.768685 -1.39226 0)
(0.843757 -1.3787 0)
(0.91998 -1.36658 0)
(0.998069 -1.35614 0)
(1.07871 -1.34759 0)
(1.16246 -1.34111 0)
(1.24957 -1.33682 0)
(1.34015 -1.33479 0)
(1.43406 -1.33504 0)
(1.5318 -1.33754 0)
(1.63395 -1.34233 0)
(1.74093 -1.3494 0)
(-0.0614635 1.51301 0)
(-0.157068 1.35679 0)
(-0.26083 0.864281 0)
(-0.135255 -0.693494 0)
(0.00742928 -1.39496 0)
(0.129175 -1.56434 0)
(0.234797 -1.5989 0)
(0.327757 -1.58502 0)
(0.411985 -1.55922 0)
(0.490297 -1.53416 0)
(0.565154 -1.51251 0)
(0.638139 -1.49396 0)
(0.710166 -1.47771 0)
(0.782149 -1.46343 0)
(0.854727 -1.4511 0)
(0.928492 -1.44079 0)
(1.00416 -1.43266 0)
(1.08239 -1.42686 0)
(1.16368 -1.4235 0)
(1.24831 -1.42264 0)
(1.33624 -1.42432 0)
(1.42766 -1.42851 0)
(1.52262 -1.43525 0)
(1.62178 -1.4445 0)
(1.72623 -1.45638 0)
(-0.0461595 1.58551 0)
(-0.132518 1.4205 0)
(-0.264554 1.01034 0)
(-0.0680744 -0.722962 0)
(0.0748168 -1.51102 0)
(0.187356 -1.67451 0)
(0.284567 -1.69549 0)
(0.36972 -1.66918 0)
(0.4471 -1.63504 0)
(0.519751 -1.60505 0)
(0.589706 -1.5809 0)
(0.658357 -1.56128 0)
(0.72678 -1.54508 0)
(0.795474 -1.53164 0)
(0.864954 -1.52073 0)
(0.935846 -1.51236 0)
(1.00876 -1.50662 0)
(1.08428 -1.50357 0)
(1.16288 -1.5033 0)
(1.24475 -1.50581 0)
(1.32995 -1.5111 0)
(1.41833 -1.51915 0)
(1.51036 -1.52997 0)
(1.60668 -1.54364 0)
(1.70769 -1.56029 0)
(-0.02502 1.61953 0)
(-0.0977105 1.46836 0)
(-0.303799 1.49956 0)
(0.0376499 -0.736471 0)
(0.173696 -1.60078 0)
(0.267864 -1.7687 0)
(0.34863 -1.77901 0)
(0.420459 -1.74271 0)
(0.487532 -1.70221 0)
(0.552103 -1.66902 0)
(0.615707 -1.64361 0)
(0.67928 -1.624 0)
(0.743234 -1.60851 0)
(0.808076 -1.59634 0)
(0.874168 -1.58719 0)
(0.941884 -1.58099 0)
(1.01177 -1.57774 0)
(1.08436 -1.57751 0)
(1.16004 -1.5803 0)
(1.239 -1.58612 0)
(1.32112 -1.59492 0)
(1.40654 -1.60671 0)
(1.4953 -1.62153 0)
(1.58803 -1.63945 0)
(1.68576 -1.66068 0)
(-0.000378036 1.5931 0)
(-0.0398419 1.44413 0)
(-0.284973 1.80508 0)
(0.16475 -0.721101 0)
(0.298267 -1.66731 0)
(0.365222 -1.83927 0)
(0.422302 -1.84297 0)
(0.476264 -1.80134 0)
(0.530324 -1.75816 0)
(0.585398 -1.7245 0)
(0.641728 -1.69981 0)
(0.699442 -1.68142 0)
(0.758739 -1.66754 0)
(0.819545 -1.65728 0)
(0.881963 -1.65028 0)
(0.946332 -1.64648 0)
(1.01305 -1.64588 0)
(1.08256 -1.6485 0)
(1.1552 -1.65435 0)
(1.23104 -1.6634 0)
(1.31006 -1.67563 0)
(1.39204 -1.69103 0)
(1.47739 -1.70964 0)
(1.56672 -1.73165 0)
(1.66037 -1.75727 0)
(0.0367961 1.49524 0)
(0.0363486 1.37197 0)
(0.0171224 1.03705 0)
(0.332424 -0.82585 0)
(0.432216 -1.71582 0)
(0.466671 -1.88279 0)
(0.496616 -1.88329 0)
(0.531002 -1.84265 0)
(0.571451 -1.80174 0)
(0.616664 -1.77098 0)
(0.665721 -1.74915 0)
(0.717846 -1.73348 0)
(0.772369 -1.72214 0)
(0.829089 -1.71437 0)
(0.887919 -1.70993 0)
(0.948922 -1.70877 0)
(1.01243 -1.71094 0)
(1.0788 -1.71646 0)
(1.14829 -1.72534 0)
(1.22096 -1.73754 0)
(1.29661 -1.75306 0)
(1.37527 -1.77188 0)
(1.45697 -1.79414 0)
(1.54224 -1.81998 0)
(1.63202 -1.84969 0)
(0.0904151 1.32784 0)
(0.118989 1.24139 0)
(0.272564 0.536701 0)
(0.492734 -0.947453 0)
(0.546599 -1.74101 0)
(0.552374 -1.89533 0)
(0.559542 -1.90001 0)
(0.577438 -1.86755 0)
(0.60621 -1.83389 0)
(0.643151 -1.80925 0)
(0.685929 -1.79235 0)
(0.732914 -1.78058 0)
(0.783256 -1.77258 0)
(0.836267 -1.76783 0)
(0.891621 -1.76626 0)
(0.949375 -1.76794 0)
(1.00973 -1.77297 0)
(1.07298 -1.78139 0)
(1.13933 -1.79323 0)
(1.20874 -1.80847 0)
(1.2811 -1.82711 0)
(1.35608 -1.84918 0)
(1.43403 -1.8748 0)
(1.5155 -1.90424 0)
(1.60074 -1.93777 0)
(0.127137 1.1301 0)
(0.188023 1.05349 0)
(0.429286 0.240205 0)
(0.583402 -1.04621 0)
(0.615841 -1.74334 0)
(0.606597 -1.89534 0)
(0.601297 -1.90256 0)
(0.609671 -1.8811 0)
(0.63122 -1.85783 0)
(0.662554 -1.84145 0)
(0.700797 -1.83069 0)
(0.743985 -1.82367 0)
(0.790759 -1.81948 0)
(0.84048 -1.81806 0)
(0.892777 -1.81956 0)
(0.947509 -1.82417 0)
(1.00486 -1.83206 0)
(1.06508 -1.84334 0)
(1.12831 -1.85804 0)
(1.19452 -1.87616 0)
(1.2634 -1.89773 0)
(1.33488 -1.92281 0)
(1.40896 -1.95159 0)
(1.48606 -1.9843 0)
(1.56702 -2.02125 0)
(0.129066 0.956588 0)
(0.229078 0.904742 0)
(0.475506 -0.0109229 0)
(0.603676 -1.14684 0)
(0.631192 -1.74071 0)
(0.626895 -1.88785 0)
(0.619372 -1.89955 0)
(0.625908 -1.88987 0)
(0.645235 -1.87788 0)
(0.674184 -1.87029 0)
(0.709874 -1.866 0)
(0.750338 -1.86381 0)
(0.794535 -1.86358 0)
(0.841641 -1.86559 0)
(0.891212 -1.87018 0)
(0.94321 -1.87771 0)
(0.997761 -1.8884 0)
(1.05508 -1.90242 0)
(1.11529 -1.91982 0)
(1.17829 -1.94063 0)
(1.24384 -1.96492 0)
(1.31158 -1.99276 0)
(1.38174 -2.02437 0)
(1.45482 -2.06003 0)
(1.531 -2.10005 0)
(0.100429 0.889817 0)
(0.227283 0.903885 0)
(0.414414 -0.261738 0)
(0.566548 -1.26539 0)
(0.626474 -1.75703 0)
(0.61991 -1.88327 0)
(0.617933 -1.89961 0)
(0.628452 -1.89959 0)
(0.649493 -1.89801 0)
(0.678441 -1.89831 0)
(0.713218 -1.8998 0)
(0.752305 -1.90216 0)
(0.794604 -1.90568 0)
(0.839588 -1.91095 0)
(0.886932 -1.91852 0)
(0.936503 -1.92883 0)