/*--------------------------------*- C++ -*----------------------------------*\
  =========                 |
  \\      /  F ield         | OpenFOAM: The Open Source CFD Toolbox
   \\    /   O peration     | Website:  https://openfoam.org
    \\  /    A nd           | Version:  13
     \\/     M anipulation  |
\*---------------------------------------------------------------------------*/
FoamFile
{
    format      ascii;
    class       volVectorField;
    location    "2";
    object      U;
}
// * * * * * * * * * * * * * * * * * * * * * * * * * * * * * * * * * * * * * //

dimensions      [0 1 -1 0 0 0 0];

internalField   nonuniform List<vector> 
6440
(
(-5.4021e-07 1.32213e-06 0)
(-1.68667e-06 1.97819e-06 0)
(-2.63226e-06 2.0125e-06 -2.16579e-20)
(-2.85417e-06 1.93356e-06 2.1602e-20)
(-2.27013e-06 1.82079e-06 0)
(-7.71077e-07 1.6855e-06 -4.29682e-20)
(1.64052e-06 1.52179e-06 4.27489e-20)
(4.81833e-06 1.32551e-06 0)
(8.62585e-06 1.13237e-06 8.46654e-20)
(1.29512e-05 9.24455e-07 -8.40307e-20)
(1.75836e-05 6.88935e-07 -8.34784e-20)
(2.23036e-05 4.20589e-07 -5.25903e-23)
(2.68979e-05 1.11152e-07 -3.53582e-23)
(3.12027e-05 -2.95988e-07 8.11581e-20)
(3.499e-05 -8.26554e-07 8.02624e-20)
(3.79143e-05 -1.28887e-06 -7.93223e-20)
(3.96017e-05 -1.57501e-06 0)
(3.9712e-05 -1.63674e-06 1.54299e-19)
(3.80874e-05 -1.2924e-06 -1.89563e-22)
(3.48511e-05 -4.51112e-07 -1.49891e-19)
(3.02012e-05 8.25111e-07 1.47318e-19)
(2.43348e-05 2.42613e-06 -2.90023e-19)
(1.77685e-05 4.02579e-06 1.42674e-19)
(1.10035e-05 5.10296e-06 -1.40154e-19)
(3.82468e-06 4.14133e-06 2.86439e-23)
(-2.57112e-07 2.98989e-06 0)
(6.00586e-08 3.14766e-06 0)
(1.87844e-06 7.86802e-07 -2.24513e-20)
(5.64247e-06 -2.52529e-06 2.23944e-20)
(1.14524e-05 -6.19859e-06 0)
(1.92836e-05 -9.82225e-06 -4.45397e-20)
(2.89131e-05 -1.30635e-05 4.43169e-20)
(3.99829e-05 -1.56777e-05 0)
(5.20452e-05 -1.74484e-05 0)
(6.4576e-05 -1.82507e-05 0)
(7.69852e-05 -1.79965e-05 0)
(8.86571e-05 -1.66347e-05 -8.58448e-20)
(9.89345e-05 -1.41293e-05 8.50344e-20)
(0.000107214 -1.05118e-05 0)
(0.000113268 -5.99272e-06 8.33141e-20)
(0.000116568 -6.5675e-07 -8.23682e-20)
(0.000116185 5.41085e-06 0)
(0.000112043 1.20297e-05 0)
(0.000104566 1.86977e-05 1.58087e-19)
(9.39141e-05 2.48704e-05 -1.55938e-19)
(8.03013e-05 2.97774e-05 1.53332e-19)
(6.41876e-05 3.24205e-05 -1.51097e-19)
(4.6512e-05 3.14956e-05 -1.48441e-19)
(2.87445e-05 2.55187e-05 1.49777e-22)
(9.31605e-06 1.38124e-05 1.11412e-19)
(3.95972e-08 1.73997e-06 0)
(2.81919e-06 -3.01829e-06 0)
(9.05749e-06 -1.13522e-05 -2.22718e-20)
(1.88398e-05 -2.0913e-05 2.22177e-20)
(3.18766e-05 -3.05613e-05 0)
(4.78027e-05 -3.93881e-05 -4.42069e-20)
(6.60819e-05 -4.66324e-05 8.80316e-20)
(8.60364e-05 -5.16978e-05 -4.37931e-20)
(0.00010687 -5.41383e-05 8.71975e-20)
(0.000127704 -5.36567e-05 -8.65969e-20)
(0.00014761 -5.00928e-05 -8.60789e-20)
(0.000165666 -4.34225e-05 -5.19377e-23)
(0.000180961 -3.37564e-05 8.46721e-20)
(0.000192711 -2.13522e-05 8.39254e-20)
(0.000200293 -6.65479e-06 -1.33011e-23)
(0.000202727 9.68222e-06 -8.21913e-20)
(0.000199849 2.68748e-05 0)
(0.000192046 4.3814e-05 1.60289e-19)
(0.000179178 5.92888e-05 -1.5833e-19)
(0.000161358 7.17456e-05 0)
(0.000139031 7.9401e-05 1.53586e-19)
(0.000112765 8.03722e-05 -3.02719e-19)
(8.34151e-05 7.27131e-05 1.49097e-19)
(5.26457e-05 5.43464e-05 -1.46464e-19)
(1.75349e-05 2.56676e-05 1.13319e-19)
(3.39285e-07 -2.79416e-06 0)
(5.99704e-06 -1.77105e-05 0)
(1.73718e-05 -3.60032e-05 -2.20146e-20)
(3.40949e-05 -5.47758e-05 2.19626e-20)
(5.53399e-05 -7.23633e-05 0)
(8.02875e-05 -8.7342e-05 -4.37224e-20)
(0.000108007 -9.851e-05 8.70901e-20)
(0.000137446 -0.000104929 -4.3339e-20)
(0.000167447 -0.000105931 0)
(0.000196793 -0.000101127 0)
(0.000224255 -9.04137e-05 0)
(0.000248638 -7.3981e-05 -8.47292e-20)
(0.000268835 -5.23494e-05 8.4034e-20)
(0.000283902 -2.63199e-05 8.33574e-20)
(0.000292798 3.11525e-06 -8.2582e-20)
(0.000295053 3.42088e-05 0)
(0.000290615 6.53477e-05 1.61615e-19)
(0.000279226 9.43959e-05 -1.59845e-19)
(0.00026086 0.000118955 0)
(0.000235776 0.000136495 0)
(0.000204435 0.000144403 0)
(0.000167296 0.000140233 0)
(0.000124962 0.000121857 0)
(7.93628e-05 8.70275e-05 -1.4634e-19)
(2.6663e-05 3.79344e-05 1.06367e-22)
(6.34773e-07 -1.05482e-05 0)
(9.21314e-06 -4.08458e-05 0)
(2.57784e-05 -7.29892e-05 -2.16966e-20)
(4.94846e-05 -0.000103653 2.16463e-20)
(7.8931e-05 -0.000130694 0)
(0.00011282 -0.000152208 -4.31162e-20)
(0.000149817 -0.0001666 8.59047e-20)
(0.000188498 -0.000172657 -4.27628e-20)
(0.000227368 -0.000169586 0)
(0.000264907 -0.00015705 0)
(0.000299629 -0.000135198 0)
(0.000330093 -0.000104667 -8.38013e-20)
(0.000355044 -6.66599e-05 8.3164e-20)
(0.000373535 -2.29035e-05 8.25696e-20)
(0.00038423 2.47572e-05 -8.18474e-20)
(0.000386597 7.35925e-05 0)
(0.00038068 0.000120343 1.6043e-19)
(0.000366022 0.000161844 -1.58787e-19)
(0.000342601 0.000194671 0)
(0.000310654 0.000215415 0)
(0.000270516 0.000220889 0)
(0.000222564 0.000208421 0)
(0.000167164 0.000176152 0)
(0.000106501 0.000122129 -1.45732e-19)
(3.58926e-05 5.06067e-05 1.157e-19)
(9.00907e-07 -2.11655e-05 0)
(1.20543e-05 -7.14131e-05 0)
(3.31528e-05 -0.000120693 -2.13323e-20)
(6.29077e-05 -0.000165349 2.12833e-20)
(9.94036e-05 -0.000202811 0)
(0.000140928 -0.000230757 -4.24156e-20)
(0.000185803 -0.000247273 8.45303e-20)
(0.000232304 -0.000250972 -4.20921e-20)
(0.000278669 -0.000241074 8.39523e-20)
(0.000323148 -0.000217472 -8.34755e-20)
(0.000364058 -0.000180776 0)
(0.000399779 -0.000132323 -8.26901e-20)
(0.000428904 -7.41585e-05 -6.8133e-23)
(0.000450534 -9.26216e-06 1.63174e-19)
(0.000463324 5.87406e-05 -8.09306e-20)
(0.000466325 0.000126428 0)
(0.000459447 0.000189169 1.58865e-19)
(0.000442363 0.000242414 -1.79725e-22)
(0.000414935 0.00028178 -2.64947e-22)
(0.000377256 0.000303198 -1.53722e-19)
(0.000329558 0.000303245 0)
(0.000272145 0.000279463 0)
(0.000205151 0.000230784 0)
(0.00013096 0.000156133 -1.44738e-19)
(4.41683e-05 6.2178e-05 1.16298e-19)
(1.1008e-06 -3.39568e-05 0)
(1.40615e-05 -0.000107478 0)
(3.82811e-05 -0.000176108 -2.09335e-20)
(7.2127e-05 -0.000235954 2.08858e-20)
(0.000113324 -0.000284085 4.17375e-20)
(0.000159889 -0.000317837 -8.324e-20)
(0.000209938 -0.00033507 8.30165e-20)
(0.00026158 -0.000334346 -4.13518e-20)
(0.000312921 -0.00031506 0)
(0.000362108 -0.000277535 8.21984e-20)
(0.000407365 -0.000223072 -8.17314e-20)
(0.000447095 -0.000154009 -8.14286e-20)
(0.000479767 -7.35923e-05 8.09037e-20)
(0.000503569 1.4189e-05 8.04717e-20)
(0.000517884 0.000104016 -7.98372e-20)
(0.000522321 0.000190493 0)
(0.000515776 0.000268038 1.56993e-19)
(0.000497793 0.000330962 -1.55581e-19)
(0.000468194 0.000374044 0)
(0.000426916 0.000392904 1.51833e-19)
(0.000374077 0.000384333 -1.5031e-19)
(0.000309891 0.000346626 0)
(0.000234271 0.000280082 0)
(0.000149798 0.000185109 -1.43448e-19)
(5.04673e-05 7.12083e-05 1.98524e-22)
(1.19449e-06 -4.79194e-05 0)
(1.4797e-05 -0.000146303 0)
(4.00373e-05 -0.000235071 -2.05101e-20)
(7.51046e-05 -0.000310183 2.04639e-20)
(0.000117606 -0.000368423 0)
(0.000165506 -0.000406862 -4.08255e-20)
(0.000216912 -0.000423234 4.06734e-20)
(0.000269954 -0.000416181 0)
(0.000322778 -0.000385434 0)
(0.000373576 -0.000331927 0)
(0.000420604 -0.000257861 0)
(0.000462217 -0.00016671 -8.00743e-20)
(0.000496888 -6.31866e-05 7.96024e-20)
(0.00052315 4.70689e-05 0)
(0.000539965 0.000157709 0)
(0.000546412 0.000261445 0)
(0.000541498 0.000351272 0)
(0.000524625 0.000420603 0)
(0.000495345 0.000463768 1.51827e-19)
(0.000453398 0.000476518 -1.50449e-19)
(0.000398722 0.000456404 0)
(0.000331401 0.000403038 0)
(0.000251159 0.000318659 0)
(0.000160928 0.000205631 -1.41938e-19)
(5.4124e-05 7.65869e-05 1.16596e-19)
(1.15061e-06 -6.18337e-05 0)
(1.39431e-05 -0.000184637 0)
(3.76262e-05 -0.00029273 -2.00698e-20)
(7.0437e-05 -0.000381996 2.00254e-20)
(0.000110174 -0.000448997 0)
(0.000155015 -0.000490615 -3.99731e-20)
(0.000203306 -0.000504555 7.97288e-20)
(0.000253425 -0.000489661 -3.9742e-20)
(0.000303767 -0.000446136 0)
(0.000352752 -0.00037568 0)
(0.00039882 -0.000281543 7.89359e-20)
(0.000440433 -0.000168512 -1.57191e-19)
(0.000476139 -4.27861e-05 7.82321e-20)
(0.000504495 8.84564e-05 7.79274e-20)
(0.000524145 0.000217012 -7.73764e-20)
(0.000533872 0.000334365 0)
(0.000532562 0.000432405 -1.52609e-19)
(0.000519298 0.000503887 1.51393e-19)
(0.000493283 0.000543073 0)
(0.000454013 0.000546304 0)
(0.000401168 0.000512495 0)
(0.000334713 0.000443044 1.44388e-19)
(0.000254379 0.000342709 -1.43023e-19)
(0.000163601 0.000215704 -1.40274e-19)
(5.49415e-05 7.75808e-05 1.164e-19)
(9.55343e-07 -7.44206e-05 0)
(1.13854e-05 -0.000219136 0)
(3.07868e-05 -0.000344182 0)
(5.77077e-05 -0.000445399 0)
(9.04762e-05 -0.000519172 0)
(0.000127773 -0.000562257 0)
(0.000168437 -0.000572409 0)
(0.000211338 -0.000548775 0)
(0.000255335 -0.000492144 -7.77863e-20)
(0.000299258 -0.000405082 7.74702e-20)
(0.000341843 -0.000291971 0)
(0.000381742 -0.000158915 0)
(0.000417762 -1.36962e-05 0)
(0.000448224 0.000134651 0)
(0.000471404 0.000276825 0)
(0.000485972 0.00040309 0)
(0.000490391 0.000504475 0)
(0.00048321 0.000573547 -1.48987e-19)
(0.000463283 0.000604848 1.47826e-19)
(0.000429876 0.000596022 0)
(0.00038235 0.000547912 -1.44418e-19)
(0.000320933 0.000463339 1.43175e-19)
(0.000245104 0.000350048 0)
(0.000157936 0.000214562 0)
(5.25911e-05 7.43842e-05 0)
(6.17433e-07 -8.45214e-05 0)
(7.25374e-06 -0.00024682 0)
(1.98821e-05 -0.000385138 0)
(3.76283e-05 -0.00049526 0)
(5.96731e-05 -0.000573407 0)
(8.54638e-05 -0.00061625 0)
(0.000114566 -0.000621647 3.81728e-20)
(0.000146571 -0.000589095 -3.80498e-20)
(0.000181007 -0.000520084 -7.61361e-20)
(0.000217255 -0.000418085 7.58567e-20)
(0.000254537 -0.000288667 7.58577e-20)
(0.000291781 -0.000139306 -7.55426e-20)
(0.000327344 2.09841e-05 0)
(0.000359904 0.000181686 7.51221e-20)
(0.000387848 0.000332043 9.76158e-23)
(0.000408824 0.000461701 -7.42415e-20)
(0.000420837 0.000561306 0)
(0.000421783 0.000623937 -1.46599e-19)
(0.00041036 0.00064423 1.45517e-19)
(0.00038599 0.000622017 0)
(0.000346652 0.000559903 0)
(0.000292839 0.000463241 1.40643e-19)
(0.00022446 0.00034125 -1.39456e-19)
(0.000144851 0.000203041 0)
(4.7752e-05 6.76604e-05 0)
(1.70737e-07 -9.12579e-05 0)
(1.9106e-06 -0.000265454 0)
(5.85084e-06 -0.000412455 0)
(1.19356e-05 -0.000527918 0)
(2.04602e-05 -0.000607876 0)
(3.18543e-05 -0.000648907 0)
(4.65987e-05 -0.000649007 0)
(6.51436e-05 -0.000608242 0)
(8.78225e-05 -0.000528569 0)
(0.000114689 -0.000414423 0)
(0.000145409 -0.000272485 -7.42889e-20)
(0.000179182 -0.000111501 7.40091e-20)
(0.000214739 5.8105e-05 0)
(0.000250292 0.000225181 0)
(0.000283593 0.000377784 0)
(0.000312039 0.000505305 0)
(0.000333269 0.000598348 0)
(0.000343705 0.000650905 0)
(0.000342586 0.000659105 0)
(0.000328581 0.000623449 0)
(0.000298755 0.000549158 0)
(0.000254379 0.000443999 -1.38659e-19)
(0.000195739 0.00031866 1.37567e-19)
(0.000127182 0.000183576 0)
(4.14644e-05 5.86951e-05 0)
(-3.14129e-07 -9.41419e-05 0)
(-4.09024e-06 -0.000273804 0)
(-9.9304e-06 -0.00042449 0)
(-1.6867e-05 -0.000541605 0)
(-2.33439e-05 -0.000620948 3.64523e-20)
(-2.78362e-05 -0.000659022 -3.63698e-20)
(-2.88345e-05 -0.000653944 0)
(-2.49495e-05 -0.000606115 0)
(-1.49519e-05 -0.000518251 -7.27999e-20)
(1.93129e-06 -0.000395574 1.45345e-19)
(2.5836e-05 -0.000245727 1.76053e-22)
(5.61984e-05 -7.84997e-05 -7.24564e-20)
(9.18475e-05 9.46536e-05 0)
(0.00013063 0.000261768 0)
(0.000170106 0.000410747 7.19128e-20)
(0.00020706 0.000530826 -7.14601e-20)
(0.000237788 0.000613545 -1.42396e-19)
(0.000259088 0.000653156 -1.22393e-22)
(0.000268493 0.000648829 1.40623e-19)
(0.000264081 0.000601621 1.39544e-19)
(0.000244467 0.000518738 -1.38572e-19)
(0.000210764 0.000409326 1.36675e-19)
(0.000163759 0.000285877 -1.35667e-19)
(0.000107716 0.000159095 0)
(3.45932e-05 4.86633e-05 0)
(-7.56542e-07 -9.3048e-05 0)
(-1.01138e-05 -0.000271744 0)
(-2.59e-05 -0.00042119 0)
(-4.59535e-05 -0.000536448 0)
(-6.74706e-05 -0.000613029 0)
(-8.78221e-05 -0.000647311 0)
(-0.000104455 -0.000637565 0)
(-0.000115035 -0.000584474 0)
(-0.000117399 -0.00049136 -7.11163e-20)
(-0.000110063 -0.000364228 7.09224e-20)
(-9.25529e-05 -0.000211494 0)
(-6.52668e-05 -4.36723e-05 0)
(-2.92156e-05 0.000127247 0)
(1.34021e-05 0.000288686 0)
(5.92432e-05 0.000428901 0)
(0.000104334 0.00053736 0)
(0.000144435 0.00060671 0)
(0.000175717 0.000632889 -1.38935e-19)
(0.000195023 0.000615916 1.38073e-19)
(0.000200216 0.000559721 0)
(0.000190204 0.000472343 0)
(0.000166834 0.000363618 0)
(0.00013138 0.000246676 0)
(8.75438e-05 0.000131902 0)
(2.7277e-05 3.8045e-05 0)
(-1.1979e-06 -8.82895e-05 0)
(-1.56617e-05 -0.000260136 0)
(-4.05333e-05 -0.000403913 0)
(-7.25993e-05 -0.000514276 0)
(-0.000107864 -0.000586408 0)
(-0.000142651 -0.000616528 0)
(-0.000173428 -0.000602979 0)
(-0.000196903 -0.000546735 0)
(-0.000210217 -0.000451533 0)
(-0.000211366 -0.000323986 0)
(-0.000199375 -0.000173049 6.93745e-20)
(-0.000174309 -9.70105e-06 -6.91525e-20)
(-0.000137408 0.00015373 0)
(-9.1313e-05 0.000304823 0)
(-3.98279e-05 0.000432034 6.88772e-20)
(1.25097e-05 0.000525887 -6.84968e-20)
(6.08848e-05 0.000580231 -1.36845e-19)
(0.000100793 0.000592663 1.36069e-19)
(0.000128644 0.000564894 0)
(0.000142064 0.000502591 0)
(0.000140118 0.000414572 0)
(0.00012565 0.000310723 1.32775e-19)
(9.99029e-05 0.000203833 -2.63151e-19)
(6.66201e-05 0.000103332 1.30331e-19)
(1.95337e-05 2.83563e-05 0)
(-1.58051e-06 -8.05731e-05 0)
(-2.02126e-05 -0.000240599 0)
(-5.25589e-05 -0.00037509 0)
(-9.4567e-05 -0.000478194 0)
(-0.000141204 -0.000544709 0)
(-0.000187881 -0.000570664 0)
(-0.000230218 -0.000554428 -3.37617e-20)
(-0.000264162 -0.00049717 3.36872e-20)
(-0.000286273 -0.000402975 -6.75768e-20)
(-0.000294047 -0.000278754 6.74044e-20)
(-0.000286169 -0.0001338 -6.76401e-20)
(-0.000262817 2.0782e-05 6.74297e-20)
(-0.000225195 0.000172858 0)
(-0.000176203 0.0003101 -6.74661e-20)
(-0.000120306 0.000421747 6.71265e-20)
(-6.24322e-05 0.000499501 0)
(-7.83853e-06 0.00053857 0)
(3.86117e-05 0.000538149 -1.33678e-19)
(7.30798e-05 0.000501554 -2.42428e-22)
(9.28389e-05 0.000435972 1.32481e-19)
(9.70224e-05 0.000351208 0)
(8.90418e-05 0.000257091 -1.30821e-19)
(7.04658e-05 0.000164701 1.30002e-19)
(4.90396e-05 7.92357e-05 0)
(1.44257e-05 2.18775e-05 -1.11718e-19)
(-1.82747e-06 -7.07272e-05 0)
(-2.33947e-05 -0.00021523 0)
(-6.11439e-05 -0.000337796 0)
(-0.00011039 -0.000432008 0)
(-0.000165314 -0.00049225 0)
(-0.000220626 -0.000514344 0)
(-0.000271295 -0.000496634 0)
(-0.000312705 -0.000440392 0)
(-0.000340991 -0.00034985 0)
(-0.000353378 -0.000232008 0)
(-0.000348398 -9.62148e-05 0)
(-0.000325802 4.64008e-05 0)
(-0.000287411 0.00018427 0)
(-0.000236831 0.000305691 0)
(-0.000178389 0.000400777 0)
(-0.000117286 0.000462447 0)
(-5.90308e-05 0.000487265 0)
(-8.59196e-06 0.00047579 0)
(3.02238e-05 0.000432453 0)
(5.48386e-05 0.000365456 0)
(6.46205e-05 0.000286049 0)
(6.26423e-05 0.000204704 0)
(5.05039e-05 0.00012942 0)
(3.90638e-05 6.07284e-05 0)
(1.22957e-05 1.9223e-05 0)
(-1.92439e-06 -5.96256e-05 7.41005e-21)
(-2.50668e-05 -0.000186293 8.02105e-21)
(-6.59326e-05 -0.000295313 -1.60204e-20)
(-0.000119436 -0.00037973 3.20343e-20)
(-0.000179267 -0.000433535 -3.19813e-20)
(-0.00023967 -0.000452337 0)
(-0.000295182 -0.000434405 3.20078e-20)
(-0.000340821 -0.000381 3.20825e-20)
(-0.000372473 -0.000296334 -1.27933e-19)
(-0.000387191 -0.000187305 6.38984e-20)
(-0.00038356 -6.30055e-05 6.41246e-20)
(-0.000361439 6.58157e-05 -6.3923e-20)
(-0.00032294 0.00018785 -6.41305e-20)
(-0.000271867 0.000292665 1.2798e-19)
(-0.000212734 0.000371475 2.7808e-22)
(-0.000150889 0.000418355 6.44139e-20)
(-9.1834e-05 0.000430995 -1.27681e-19)
(-4.04209e-05 0.000410965 -1.28243e-19)
(-4.06378e-08 0.000363298 2.55822e-19)
(2.80629e-05 0.000296334 -1.27556e-19)
(4.40443e-05 0.000222828 0)
(4.79073e-05 0.000154043 1.26883e-19)
(4.03719e-05 9.61887e-05 -2.51929e-19)
(3.70712e-05 4.25912e-05 1.24993e-19)
(1.31859e-05 1.70023e-05 1.09893e-19)
(-1.89845e-06 -4.81166e-05 0)
(-2.52745e-05 -0.000155973 0)
(-6.70217e-05 -0.000250794 0)
(-0.000121883 -0.000325184 0)
(-0.000183343 -0.00037281 0)
(-0.000245411 -0.000389077 0)
(-0.000302393 -0.00037213 0)
(-0.000349147 -0.000323122 0)
(-0.000381485 -0.000246105 0)
(-0.000396449 -0.000147704 0)
(-0.000392842 -3.65568e-05 0)
(-0.000370711 7.74942e-05 0)
(-0.000332388 0.000183694 0)
(-0.000281858 0.000272663 0)
(-0.000223799 0.000336886 0)
(-0.000163605 0.000371662 0)
(-0.000106583 0.000375731 0)
(-5.7153e-05 0.000351431 0)
(-1.76929e-05 0.000303986 -1.25372e-19)
(1.314e-05 0.000240253 1.24798e-19)
(3.49198e-05 0.000172171 0)
(4.40393e-05 0.000109841 0)
(3.9694e-05 6.47382e-05 0)
(4.33615e-05 2.43963e-05 0)
(1.73828e-05 9.50883e-06 0)
(-1.74716e-06 -3.7163e-05 0)
(-2.42123e-05 -0.000126736 0)
(-6.48666e-05 -0.000207754 0)
(-0.000118527 -0.000272421 0)
(-0.000178715 -0.000314092 0)
(-0.000239404 -0.000327975 0)
(-0.000294863 -0.000312105 0)
(-0.000339967 -0.000267547 0)
(-0.000370606 -0.000198215 0)
(-0.000383992 -0.00011048 0)
(-0.000378733 -1.27116e-05 -6.06238e-20)
(-0.000355646 8.56532e-05 6.04402e-20)
(-0.000317573 0.000175056 0)
(-0.000268247 0.000247437 0)
(-0.000212341 0.00029663 0)
(-0.000155158 0.000319329 0)
(-0.000101585 0.00031548 0)
(-5.53499e-05 0.000288162 0)
(-1.8196e-05 0.000242855 0)
(1.16688e-05 0.000185341 0)
(3.17727e-05 0.000124637 0)
(4.11952e-05 7.26739e-05 -1.22617e-19)
(4.18572e-05 4.29086e-05 1.21919e-19)
(5.17652e-05 2.44217e-05 0)
(4.97021e-05 -3.31605e-05 0)
(-1.44344e-06 -2.62912e-05 0)
(-2.1475e-05 -9.72739e-05 0)
(-5.81879e-05 -0.000164396 0)
(-0.000107006 -0.000220059 0)
(-0.000162088 -0.000257668 0)
(-0.000217908 -0.000272331 0)
(-0.00026918 -0.000261776 0)
(-0.000311146 -0.000226526 0)
(-0.000339958 -0.00016973 0)
(-0.000353004 -9.6775e-05 0)
(-0.000349309 -1.47854e-05 0)
(-0.000329499 6.7928e-05 0)
(-0.000295465 0.000143283 0)
(-0.000250547 0.000204259 0)
(-0.000199124 0.000245503 0)
(-0.000145956 0.000264163 0)
(-9.54416e-05 0.000260185 0)
(-5.09698e-05 0.000236151 0)
(-1.45411e-05 0.000196907 0)
(1.30635e-05 0.000148754 0)
(3.10514e-05 9.74555e-05 0)
(4.09729e-05 5.5316e-05 0)
(4.18908e-05 3.44155e-05 0)
(2.7602e-05 4.41266e-05 0)
(-7.98357e-05 -1.17969e-05 0)
(-1.14371e-06 -1.63769e-05 0)
(-1.78942e-05 -6.98552e-05 0)
(-4.91718e-05 -0.000123628 0)
(-9.12574e-05 -0.000170803 0)
(-0.000139215 -0.000205258 0)
(-0.000188252 -0.000222185 0)
(-0.000233722 -0.000218961 0)
(-0.000271408 -0.000195345 0)
(-0.000297858 -0.000153359 0)
(-0.000310667 -9.70136e-05 0)
(-0.00030869 -3.18397e-05 0)
(-0.000292263 3.58165e-05 0)
(-0.000263029 9.91962e-05 0)
(-0.000223762 0.000152196 0)
(-0.000178071 0.000190045 0)
(-0.000130052 0.000209918 0)
(-8.36927e-05 0.000211227 0)
(-4.24273e-05 0.000195572 0)
(-8.87188e-06 0.000166338 0)
(1.4842e-05 0.000128302 0)
(2.70996e-05 8.73365e-05 0)
(2.79492e-05 5.24333e-05 0)
(1.62253e-05 3.45689e-05 0)
(-4.7787e-06 4.95428e-05 0)
(-2.11431e-05 0.000104091 0)
(-8.59016e-07 -8.54826e-06 0)
(-1.42667e-05 -4.76198e-05 0)
(-3.98706e-05 -9.00445e-05 0)
(-7.47475e-05 -0.000129609 0)
(-0.000114868 -0.000160658 0)
(-0.000156194 -0.000178518 0)
(-0.000194738 -0.000180351 0)
(-0.000226836 -0.000165371 0)
(-0.000249456 -0.000134763 0)
(-0.000260432 -9.14638e-05 0)
(-0.000258671 -3.97947e-05 0)
(-0.000244366 1.50081e-05 0)
(-0.000218752 6.73902e-05 0)
(-0.000184048 0.000112283 0)
(-0.000143346 0.00014557 0)
(-0.000100155 0.000164644 0)
(-5.80328e-05 0.000168713 0)
(-2.02233e-05 0.000158857 0)
(1.05991e-05 0.000137928 0)
(3.20063e-05 0.000110274 0)
(4.22286e-05 8.17699e-05 0)
(4.06174e-05 6.02886e-05 0)
(2.71575e-05 5.59823e-05 0)
(6.9082e-06 8.35744e-05 0)
(-7.90604e-06 0.000151394 0)
(-5.79168e-07 -2.49994e-06 0)
(-1.08057e-05 -2.99446e-05 0)
(-3.08631e-05 -6.29409e-05 0)
(-5.85572e-05 -9.60019e-05 0)
(-9.07122e-05 -0.000123992 0)
(-0.000124013 -0.00014244 0)
(-0.000155111 -0.000148384 0)
(-0.000180888 -0.000140612 0)
(-0.000198726 -0.00011963 0)
(-0.000206732 -8.74925e-05 0)
(-0.000203906 -4.75183e-05 0)
(-0.000190277 -3.88126e-06 0)
(-0.000166816 3.89539e-05 0)
(-0.000135313 7.66737e-05 0)
(-9.83443e-05 0.000105757 0)
(-5.8887e-05 0.000123875 0)
(-2.00404e-05 0.000130175 0)
(1.53183e-05 0.000125421 0)
(4.46739e-05 0.000112007 0)
(6.58699e-05 9.37401e-05 0)
(7.75188e-05 7.59323e-05 0)
(7.93475e-05 6.52224e-05 0)
(7.23676e-05 6.99889e-05 0)
(6.1039e-05 0.000100551 0)
(5.43653e-05 0.000163353 0)
(-3.30458e-07 1.8853e-06 0)
(-7.64901e-06 -1.6584e-05 0)
(-2.2539e-05 -4.20722e-05 0)
(-4.34368e-05 -6.98248e-05 0)
(-6.79303e-05 -9.52515e-05 0)
(-9.33659e-05 -0.000114136 0)
(-0.000116987 -0.00012347 0)
(-0.000136182 -0.000121721 0)
(-0.000148727 -0.000108846 0)
(-0.00015299 -8.61711e-05 0)
(-0.000148069 -5.61629e-05 0)
(-0.000133892 -2.20903e-05 0)
(-0.000111203 1.24276e-05 0)
(-8.14624e-05 4.38119e-05 0)
(-4.67667e-05 6.90614e-05 0)
(-9.59933e-06 8.61193e-05 0)
(2.74013e-05 9.41472e-05 0)
(6.17346e-05 9.36781e-05 0)
(9.12669e-05 8.66122e-05 0)
(0.000114331 7.61946e-05 0)
(0.000130049 6.69431e-05 0)
(0.000138654 6.4388e-05 0)
(0.000141688 7.48984e-05 0)
(0.00014289 0.00010544 0)
(0.000148604 0.000160715 0)
(-1.20367e-07 4.78255e-06 0)
(-4.87715e-06 -7.15074e-06 0)
(-1.51289e-05 -2.69665e-05 0)
(-2.98372e-05 -5.06175e-05 0)
(-4.72522e-05 -7.40621e-05 0)
(-6.53041e-05 -9.33726e-05 0)
(-8.17662e-05 -0.00010556 0)
(-9.44831e-05 -0.000108869 0)
(-0.000101591 -0.000102822 0)
(-0.000101695 -8.81535e-05 0)
(-9.39932e-05 -6.66313e-05 0)
(-7.83561e-05 -4.07785e-05 0)
(-5.53316e-05 -1.35152e-05 0)
(-2.61004e-05 1.22215e-05 0)
(7.64888e-06 3.38896e-05 0)
(4.38715e-05 4.9686e-05 0)
(8.03785e-05 5.87855e-05 0)
(0.0001151 6.1504e-05 0)
(0.000146308 5.9314e-05 0)
(0.000172776 5.48169e-05 0)
(0.00019406 5.16777e-05 0)
(0.000210694 5.43058e-05 0)
(0.00022438 6.75049e-05 0)
(0.000238282 9.59697e-05 0)
(0.000257154 0.000143074 0)
(5.17877e-08 6.40081e-06 0)
(-2.51602e-06 -1.16204e-06 0)
(-8.72364e-06 -1.69918e-05 0)
(-1.79597e-05 -3.76996e-05 0)
(-2.9032e-05 -5.97794e-05 0)
(-4.03743e-05 -7.96138e-05 0)
(-5.02228e-05 -9.42869e-05 0)
(-5.68255e-05 -0.000101898 0)
(-5.86377e-05 -0.000101642 0)
(-5.4477e-05 -9.37818e-05 0)
(-4.36362e-05 -7.95198e-05 0)
(-2.59525e-05 -6.07708e-05 0)
(-1.81818e-06 -3.98641e-05 0)
(2.78415e-05 -1.92042e-05 0)
(6.16649e-05 -9.30645e-07 0)
(9.80118e-05 1.33654e-05 0)
(0.000135136 2.28685e-05 0)
(0.000171375 2.76883e-05 0)
(0.000205331 2.88977e-05 0)
(0.00023612 2.84938e-05 0)
(0.00026358 2.9318e-05 0)
(0.000288392 3.4753e-05 0)
(0.000312147 4.83871e-05 0)
(0.000337534 7.35265e-05 0)
(0.000368373 0.000112599 0)
(1.87834e-07 6.9531e-06 0)
(-5.54233e-07 1.88514e-06 0)
(-3.31794e-06 -1.14631e-05 0)
(-7.82966e-06 -3.03031e-05 0)
(-1.33575e-05 -5.16391e-05 0)
(-1.87599e-05 -7.21727e-05 0)
(-2.26705e-05 -8.91019e-05 0)
(-2.36887e-05 -0.000100449 0)
(-2.05483e-05 -0.000105167 0)
(-1.22569e-05 -0.000103154 0)
(1.806e-06 -9.5158e-05 0)
(2.18223e-05 -8.2598e-05 0)
(4.75209e-05 -6.73115e-05 0)
(7.82029e-05 -5.12729e-05 0)
(0.00011281 -3.62969e-05 0)
(0.000150041 -2.37826e-05 0)
(0.000188511 -1.45317e-05 0)
(0.000226904 -8.628e-06 0)
(0.000264137 -5.36308e-06 0)
(0.00029957 -3.26157e-06 0)
(0.000333174 -2.2001e-07 0)
(0.000365613 6.27146e-06 0)
(0.000398338 1.88577e-05 0)
(0.000433636 3.99884e-05 0)
(0.000474548 7.13936e-05 0)
(2.88211e-07 6.63103e-06 0)
(1.03838e-06 2.47598e-06 0)
(1.15471e-06 -9.70371e-06 0)
(6.40046e-07 -2.76499e-05 0)
(-1.39714e-07 -4.88393e-05 0)
(-3.95788e-07 -7.0293e-05 0)
(9.00351e-07 -8.93526e-05 0)
(4.84757e-06 -0.000104016 0)
(1.24685e-05 -0.000113071 0)
(2.45894e-05 -0.000116133 0)
(4.17485e-05 -0.000113596 0)
(6.41405e-05 -0.000106484 0)
(9.1597e-05 -9.62407e-05 0)
(0.000123603 -8.44842e-05 0)
(0.000159352 -7.27591e-05 0)
(0.000197838 -6.23158e-05 0)
(0.000237976 -5.39451e-05 0)
(0.000278739 -4.787e-05 0)
(0.000319297 -4.36886e-05 0)
(0.000359182 -4.0396e-05 0)
(0.000398397 -3.64946e-05 0)
(0.000437561 -3.0165e-05 0)
(0.000477936 -1.94735e-05 0)
(0.000521377 -2.6571e-06 0)
(0.000570294 2.15596e-05 0)
(3.64915e-07 5.60666e-06 0)
(2.31253e-06 1.0537e-06 0)
(4.78885e-06 -1.10817e-05 0)
(7.59771e-06 -2.89948e-05 0)
(1.08133e-05 -5.05923e-05 0)
(1.4934e-05 -7.32056e-05 0)
(2.07046e-05 -9.43396e-05 0)
(2.89663e-05 -0.000112012 0)
(4.05325e-05 -0.000124906 0)
(5.60822e-05 -0.000132431 0)
(7.60798e-05 -0.000134706 0)
(0.000100723 -0.000132443 0)
(0.000129922 -0.000126771 0)
(0.000163311 -0.000119022 0)
(0.000200287 -0.00011052 0)
(0.000240084 -0.000102389 0)
(0.000281871 -9.54082e-05 0)
(0.000324854 -8.99141e-05 0)
(0.000368404 -8.57545e-05 0)
(0.000412173 -8.23068e-05 0)
(0.000456193 -7.85542e-05 0)
(0.000500979 -7.32026e-05 0)
(0.000547544 -6.4901e-05 0)
(0.000597365 -5.24e-05 0)
(0.000652333 -3.47839e-05 0)
(4.22314e-07 4.03266e-06 0)
(3.3136e-06 -1.99473e-06 0)
(7.69334e-06 -1.50328e-05 0)
(1.32213e-05 -3.36578e-05 0)
(1.97456e-05 -5.6163e-05 0)
(2.7528e-05 -8.01773e-05 0)
(3.70772e-05 -0.000103379 0)
(4.90166e-05 -0.000123839 0)
(6.39775e-05 -0.000140182 0)
(8.25093e-05 -0.000151677 0)
(0.000105006 -0.000158234 0)
(0.000131661 -0.000160324 0)
(0.000162443 -0.000158825 0)
(0.0001971 -0.000154844 0)
(0.000235195 -0.000149525 0)
(0.000276156 -0.000143887 0)
(0.000319353 -0.000138697 0)
(0.000364185 -0.000134377 0)
(0.000410175 -0.000130971 0)
(0.000457065 -0.00012815 0)
(0.000504896 -0.000125272 0)
(0.00055407 -0.000121472 0)
(0.000605376 -0.000115815 0)
(0.000659961 -0.000107437 0)
(0.000719281 -9.5714e-05 0)
(4.63577e-07 2.03384e-06 0)
(4.08493e-06 -6.33259e-06 0)
(9.97537e-06 -2.10586e-05 0)
(1.76952e-05 -4.10309e-05 0)
(2.69179e-05 -6.48862e-05 0)
(3.77166e-05 -9.05316e-05 0)
(5.04054e-05 -0.000115824 0)
(6.54223e-05 -0.000138909 0)
(8.32424e-05 -0.000158395 0)
(0.000104299 -0.000173457 0)
(0.000128921 -0.000183856 0)
(0.000157287 -0.000189877 0)
(0.000189407 -0.000192206 0)
(0.000225118 -0.000191769 0)
(0.000264109 -0.000189567 0)
(0.000305962 -0.000186534 0)
(0.000350209 -0.00018342 0)
(0.0003964 -0.000180714 0)
(0.000444178 -0.000178607 0)
(0.000493353 -0.000176994 0)
(0.00054396 -0.000175521 0)
(0.000596311 -0.00017365 0)
(0.00065101 -0.000170765 0)
(0.000708939 -0.000166286 0)
(0.000771209 -0.000159796 0)
(4.91758e-07 -2.8596e-07 0)
(4.66565e-06 -1.1675e-05 0)
(1.17348e-05 -2.87299e-05 0)
(2.11922e-05 -5.05836e-05 0)
(3.25816e-05 -7.61721e-05 0)
(4.58266e-05 -0.00010366 0)
(6.10805e-05 -0.000131082 0)
(7.86266e-05 -0.000156673 0)
(9.88039e-05 -0.000179056 0)
(0.000121943 -0.000197353 0)
(0.000148311 -0.00021122 0)
(0.000178067 -0.000220807 0)
(0.000211245 -0.000226652 0)
(0.000247747 -0.00022954 0)
(0.00028736 -0.00023036 0)
(0.000329783 -0.000229976 0)
(0.000374676 -0.00022912 0)
(0.000421707 -0.000228329 0)
(0.000470613 -0.000227902 0)
(0.000521256 -0.000227908 0)
(0.000573667 -0.000228206 0)
(0.000628086 -0.000228503 0)
(0.000684975 -0.000228432 0)
(0.000745009 -0.000227633 0)
(0.000809043 -0.000225846 0)
(5.09205e-07 -2.84179e-06 0)
(5.09014e-06 -1.77853e-05 0)
(1.30597e-05 -3.76843e-05 0)
(2.38695e-05 -6.18606e-05 0)
(3.69681e-05 -8.95082e-05 0)
(5.21624e-05 -0.000119027 0)
(6.9475e-05 -0.000148621 0)
(8.90583e-05 -0.00017663 0)
(0.000111136 -0.00020171 0)
(0.000135948 -0.000222962 0)
(0.0001637 -0.000239977 0)
(0.000194529 -0.000252808 0)
(0.000228481 -0.000261882 0)
(0.000265504 -0.000267878 0)
(0.000305455 -0.000271595 0)
(0.000348124 -0.000273841 0)
(0.000393268 -0.000275333 0)
(0.000440648 -0.000276638 0)
(0.000490075 -0.000278141 0)
(0.000541449 -0.000280033 0)
(0.000594803 -0.000282337 0)
(0.000650323 -0.000284948 0)
(0.000708367 -0.000287686 0)
(0.000769456 -0.000290359 0)
(0.000834251 -0.00029284 0)
(5.18236e-07 -5.56448e-06 0)
(5.3873e-06 -2.44671e-05 0)
(1.40269e-05 -4.76173e-05 0)
(2.58645e-05 -7.44747e-05 0)
(4.02833e-05 -0.000104453 0)
(5.69988e-05 -0.000136165 0)
(7.5928e-05 -0.000167976 0)
(9.71153e-05 -0.000198332 0)
(0.000120685 -0.000225943 0)
(0.000146796 -0.000249914 0)
(0.000175601 -0.000269798 0)
(0.000207208 -0.000285586 0)
(0.000241667 -0.000297623 0)
(0.000278952 -0.000306508 0)
(0.000318975 -0.000312974 0)
(0.000361592 -0.000317781 0)
(0.000406634 -0.000321635 0)
(0.000453932 -0.000325125 0)
(0.000503353 -0.000328693 0)
(0.000554833 -0.000332627 0)
(0.000608404 -0.000337073 0)
(0.000664217 -0.000342064 0)
(0.000722552 -0.000347567 0)
(0.000783818 -0.000353524 0)
(0.000848534 -0.000359912 0)
(5.20782e-07 -8.39798e-06 0)
(5.5821e-06 -3.15595e-05 0)
(1.47013e-05 -5.82754e-05 0)
(2.72965e-05 -8.80996e-05 0)
(4.2706e-05 -0.000120631 0)
(6.05767e-05 -0.00015467 0)
(8.07411e-05 -0.000188737 0)
(0.000103154 -0.000221385 0)
(0.000127856 -0.000251389 0)
(0.000154936 -0.000277875 0)
(0.000184494 -0.000300386 0)
(0.000216613 -0.000318871 0)
(0.000251334 -0.000333622 0)
(0.000288651 -0.000345182 0)
(0.00032851 -0.00035423 0)
(0.000370816 -0.000361493 0)
(0.000415454 -0.000367665 0)
(0.000462309 -0.00037335 0)
(0.000511292 -0.000379035 0)
(0.000562365 -0.000385077 0)
(0.000615562 -0.000391717 0)
(0.00067101 -0.000399095 0)
(0.000728932 -0.000407289 0)
(0.000789654 -0.000416348 0)
(0.000853591 -0.000426334 0)
(5.18434e-07 -1.12975e-05 0)
(5.69475e-06 -3.89308e-05 0)
(1.51381e-05 -6.94488e-05 0)
(2.82659e-05 -0.000102462 0)
(4.43896e-05 -0.000137723 0)
(6.31047e-05 -0.000174198 0)
(8.41768e-05 -0.000210552 0)
(0.000107488 -0.000245445 0)
(0.000133008 -0.000277723 0)
(0.000160766 -0.00030655 0)
(0.000190814 -0.000331472 0)
(0.000223205 -0.000352422 0)
(0.000257974 -0.000369658 0)
(0.00029512 -0.00038368 0)
(0.000334611 -0.000395134 0)
(0.000376388 -0.00040472 0)
(0.000420375 -0.000413122 0)
(0.000466495 -0.000420957 0)
(0.000514693 -0.000428743 0)
(0.000564951 -0.000436893 0)
(0.000617305 -0.000445715 0)
(0.000671863 -0.000455434 0)
(0.000728808 -0.000466214 0)
(0.000788403 -0.000478189 0)
(0.000850982 -0.000491494 0)
(5.12359e-07 -1.42277e-05 0)
(5.74242e-06 -4.64746e-05 0)
(1.53824e-05 -8.0965e-05 0)
(2.88573e-05 -0.000117334 0)
(4.54637e-05 -0.000155459 0)
(6.47603e-05 -0.000194457 0)
(8.64612e-05 -0.00023312 0)
(0.000110389 -0.000270215 0)
(0.000136455 -0.000304665 0)
(0.000164635 -0.000335679 0)
(0.000194941 -0.000362823 0)
(0.000227398 -0.000386028 0)