/*--------------------------------*- C++ -*----------------------------------*\
  =========                 |
  \\      /  F ield         | OpenFOAM: The Open Source CFD Toolbox
   \\    /   O peration     | Website:  https://openfoam.org
    \\  /    A nd           | Version:  13
     \\/     M anipulation  |
\*---------------------------------------------------------------------------*/
FoamFile
{
    format      ascii;
    class       volScalarField;
    location    "18";
    object      p;
}
// * * * * * * * * * * * * * * * * * * * * * * * * * * * * * * * * * * * * * //

dimensions      [0 2 -2 0 0 0 0];

internalField   nonuniform List<scalar> 
6440
(
0.000519264
0.000519235
0.00051917
0.000519068
0.000518925
0.000518742
0.00051852
0.00051826
0.00051797
0.00051767
0.00051738
0.000517112
0.000516879
0.000516694
0.000516566
0.000516495
0.000516477
0.000516506
0.000516579
0.000516679
0.000516803
0.000516952
0.000517121
0.000517303
0.000517461
0.000519399
0.000519379
0.000519329
0.000519242
0.000519118
0.000518957
0.000518762
0.000518538
0.000518288
0.000518023
0.000517768
0.000517537
0.000517343
0.000517196
0.000517099
0.000517031
0.000516985
0.000516943
0.000516952
0.000517
0.000517101
0.000517266
0.00051747
0.000517693
0.000517907
0.000519668
0.000519648
0.0005196
0.000519517
0.0005194
0.000519252
0.000519076
0.000518876
0.00051866
0.000518425
0.000518202
0.000518007
0.000517854
0.000517712
0.00051756
0.000517425
0.000517307
0.000517245
0.000517236
0.000517283
0.000517405
0.000517608
0.00051785
0.000518116
0.000518362
0.000520021
0.000519996
0.000519943
0.000519857
0.000519739
0.000519593
0.000519422
0.00051923
0.000519024
0.000518805
0.000518594
0.000518404
0.000518206
0.000517995
0.000517794
0.000517613
0.000517474
0.000517392
0.000517371
0.000517417
0.000517562
0.000517799
0.000518085
0.000518395
0.000518674
0.000520447
0.000520413
0.000520352
0.000520259
0.000520134
0.000519983
0.000519809
0.000519615
0.000519406
0.000519187
0.000518967
0.000518736
0.000518474
0.000518212
0.00051796
0.00051773
0.000517557
0.000517446
0.000517404
0.000517444
0.00051761
0.000517871
0.000518202
0.00051857
0.000518883
0.000520936
0.000520892
0.000520819
0.000520716
0.00052058
0.000520418
0.000520231
0.000520023
0.000519799
0.000519563
0.000519313
0.000519029
0.000518725
0.000518398
0.000518095
0.000517824
0.000517602
0.000517444
0.000517366
0.000517385
0.000517554
0.000517839
0.000518214
0.00051864
0.000518985
0.000521476
0.000521426
0.000521342
0.000521224
0.00052107
0.000520891
0.000520685
0.000520457
0.00052021
0.00051995
0.000519659
0.000519309
0.000518958
0.000518599
0.000518249
0.000517923
0.000517641
0.000517421
0.000517288
0.000517277
0.000517445
0.000517752
0.000518167
0.00051864
0.000519016
0.000522067
0.000522007
0.00052191
0.000521776
0.000521606
0.000521402
0.00052117
0.000520912
0.000520635
0.000520345
0.000520002
0.000519625
0.000519233
0.000518832
0.000518432
0.000518048
0.000517698
0.000517404
0.000517197
0.000517164
0.000517322
0.00051764
0.000518085
0.000518587
0.000518993
0.000522712
0.000522641
0.00052253
0.000522374
0.000522177
0.000521943
0.000521676
0.000521379
0.000521054
0.000520731
0.000520362
0.000519961
0.00051954
0.000519103
0.000518657
0.000518215
0.000517792
0.000517412
0.000517114
0.000517069
0.000517212
0.000517526
0.000517987
0.000518516
0.000518942
0.000523415
0.000523332
0.000523203
0.000523024
0.000522796
0.000522527
0.000522221
0.000521886
0.000521533
0.000521167
0.000520767
0.000520339
0.000519891
0.000519423
0.000518938
0.000518446
0.000517961
0.00051751
0.000517164
0.000517053
0.000517144
0.000517423
0.00051788
0.000518423
0.000518845
0.000524176
0.000524085
0.000523938
0.000523735
0.000523477
0.000523171
0.000522825
0.000522449
0.000522079
0.000521655
0.000521213
0.000520754
0.000520276
0.00051978
0.000519268
0.000518741
0.000518208
0.000517695
0.000517305
0.000517104
0.000517111
0.00051732
0.000517745
0.000518281
0.000518665
0.000524997
0.000524898
0.000524738
0.000524513
0.000524227
0.000523886
0.000523502
0.000523098
0.000522648
0.000522172
0.000521687
0.000521192
0.000520686
0.000520166
0.000519629
0.000519075
0.000518513
0.000517953
0.000517528
0.000517225
0.000517113
0.00051721
0.00051756
0.000518052
0.000518367
0.000525877
0.00052577
0.000525596
0.000525352
0.000525036
0.000524664
0.000524245
0.000523776
0.000523272
0.000522743
0.000522207
0.000521666
0.000521119
0.000520565
0.000520004
0.000519433
0.000518847
0.000518257
0.000517817
0.00051741
0.000517143
0.00051708
0.000517292
0.00051769
0.000517891
0.000526815
0.000526704
0.00052652
0.000526262
0.000525931
0.000525527
0.00052506
0.000524542
0.000523984
0.000523402
0.000522803
0.000522194
0.000521582
0.000520975
0.000520376
0.000519789
0.000519217
0.000518662
0.000518154
0.000517644
0.00051717
0.000516879
0.000516881
0.000517124
0.000517142
0.000527812
0.000527699
0.00052751
0.00052724
0.00052689
0.000526463
0.000525967
0.000525411
0.00052481
0.00052417
0.000523497
0.000522801
0.0005221
0.000521411
0.000520744
0.000520109
0.000519518
0.000518977
0.000518407
0.000517793
0.000517114
0.000516548
0.000516263
0.000516274
0.000516005
0.000528864
0.000528752
0.000528564
0.00052829
0.000527932
0.000527492
0.000526976
0.000526395
0.000525754
0.000525055
0.000524302
0.000523507
0.000522695
0.0005219
0.000521126
0.000520383
0.000519708
0.00051912
0.000518496
0.000517757
0.000516874
0.000516024
0.000515372
0.000515049
0.000514321
0.000529964
0.000529858
0.000529677
0.000529412
0.00052906
0.000528622
0.000528101
0.000527504
0.000526831
0.000526085
0.000525261
0.000524377
0.000523452
0.000522533
0.000521591
0.000520642
0.000519808
0.000519128
0.000518394
0.000517486
0.000516395
0.000515231
0.000514065
0.000513298
0.000511866
0.000531104
0.000531008
0.000530841
0.000530593
0.000530261
0.000529845
0.000529342
0.000528756
0.000528088
0.000527338
0.000526494
0.000525566
0.000524556
0.000523585
0.000522531
0.000521411
0.000520333
0.000519276
0.000518007
0.000516679
0.000515329
0.000513845
0.000512111
0.000511006
0.000508391
0.000532281
0.000532198
0.00053205
0.000531822
0.000531518
0.000531135
0.00053067
0.000530112
0.000529475
0.000528813
0.00052808
0.000527245
0.000526278
0.00052519
0.000523966
0.000522684
0.000521374
0.000519875
0.000518041
0.000516515
0.000515077
0.000512839
0.000510142
0.000508368
0.000502679
0.000533488
0.000533418
0.00053329
0.000533088
0.000532813
0.000532475
0.000532068
0.000531593
0.000531072
0.000530441
0.000529691
0.000528881
0.000527991
0.000526958
0.000525703
0.000524286
0.000522635
0.000520678
0.000518414
0.000515762
0.000512665
0.000508967
0.000504608
0.000499466
0.000484515
0.000534707
0.000534648
0.000534541
0.000534367
0.000534126
0.000533821
0.000533458
0.000533034
0.000532496
0.000531886
0.000531192
0.000530414
0.000529542
0.000528548
0.000527395
0.00052595
0.00052426
0.000522295
0.000520033
0.0005174
0.000514288
0.000510376
0.000504646
0.00049581
0.000481853
0.000535945
0.000535896
0.0005358
0.000535639
0.000535414
0.000535127
0.000534777
0.000534365
0.00053387
0.000533298
0.000532645
0.000531906
0.000531068
0.000530114
0.000529016
0.000527686
0.000526085
0.000524217
0.000522023
0.000519403
0.000516213
0.000512167
0.000506728
0.000499296
0.000489137
0.000537202
0.00053716
0.000537073
0.000536924
0.000536715
0.000536445
0.000536115
0.000535721
0.000535258
0.00053472
0.000534103
0.000533401
0.000532602
0.000531688
0.000530636
0.000529409
0.00052791
0.000526168
0.000524123
0.000521689
0.000518737
0.00051509
0.000510446
0.000504712
0.000497916
0.000538478
0.000538443
0.000538364
0.000538229
0.000538037
0.000537789
0.000537482
0.000537115
0.000536684
0.000536184
0.000535609
0.000534953
0.000534205
0.00053335
0.000532366
0.000531222
0.000529878
0.000528311
0.000526483
0.00052434
0.000521803
0.000518782
0.0005152
0.000511114
0.000506831
0.000539772
0.000539744
0.000539676
0.000539556
0.000539383
0.000539158
0.000538879
0.000538544
0.00053815
0.000537693
0.000537169
0.00053657
0.000535889
0.000535112
0.000534222
0.0005332
0.00053202
0.000530664
0.000529105
0.000527315
0.000525267
0.000522942
0.000520369
0.000517687
0.000515205
0.000541082
0.000541062
0.000541005
0.000540901
0.00054075
0.00054055
0.000540301
0.000540002
0.00053965
0.000539243
0.000538777
0.000538246
0.000537644
0.000536962
0.000536188
0.000535311
0.000534315
0.000533191
0.000531929
0.000530522
0.000528976
0.000527319
0.000525627
0.000524054
0.000522851
0.000542404
0.000542392
0.000542349
0.000542262
0.000542133
0.000541961
0.000541745
0.000541485
0.00054118
0.000540828
0.000540426
0.000539971
0.000539459
0.000538884
0.00053824
0.000537521
0.000536722
0.000535841
0.000534882
0.000533856
0.000532789
0.00053173
0.000530768
0.000530045
0.000529749
0.000543735
0.000543732
0.000543702
0.000543634
0.000543528
0.000543386
0.000543206
0.000542988
0.000542733
0.000542439
0.000542106
0.000541732
0.000541316
0.000540855
0.000540347
0.000539792
0.000539192
0.000538553
0.000537888
0.000537219
0.000536581
0.000536033
0.00053566
0.00053558
0.000535937
0.000545072
0.000545077
0.000545061
0.000545012
0.000544932
0.000544819
0.000544676
0.000544503
0.000544299
0.000544067
0.000543805
0.000543515
0.000543197
0.000542852
0.000542482
0.00054209
0.000541684
0.000541275
0.000540881
0.000540532
0.000540267
0.000540143
0.000540236
0.000540642
0.000541469
0.00054641
0.000546425
0.000546422
0.000546393
0.000546337
0.000546256
0.000546151
0.000546022
0.000545872
0.000545701
0.000545512
0.000545306
0.000545086
0.000544856
0.000544619
0.000544383
0.000544159
0.000543962
0.000543814
0.000543743
0.000543792
0.000544013
0.000544469
0.00054524
0.000546406
0.000547747
0.000547769
0.000547782
0.000547772
0.000547741
0.000547691
0.000547623
0.00054754
0.000547442
0.000547333
0.000547215
0.000547092
0.000546967
0.000546847
0.000546737
0.000546647
0.00054659
0.000546584
0.000546649
0.000546818
0.000547126
0.000547621
0.000548358
0.000549398
0.000550805
0.000549077
0.000549108
0.000549134
0.000549143
0.000549137
0.000549118
0.000549087
0.000549048
0.000549002
0.000548953
0.000548904
0.00054886
0.000548826
0.000548809
0.000548817
0.000548861
0.000548954
0.000549114
0.000549364
0.000549732
0.000550252
0.000550964
0.000551913
0.000553149
0.000554721
0.000550397
0.000550437
0.000550476
0.000550504
0.000550522
0.000550532
0.000550538
0.000550541
0.000550544
0.000550552
0.000550569
0.0005506
0.000550651
0.000550729
0.000550844
0.000551007
0.000551232
0.000551537
0.000551943
0.000552475
0.000553163
0.000554043
0.00055515
0.000556525
0.000558206
0.000551704
0.000551751
0.000551804
0.000551849
0.00055189
0.000551929
0.000551968
0.000552012
0.000552062
0.000552124
0.000552202
0.000552302
0.00055243
0.000552595
0.000552806
0.000553074
0.000553414
0.000553841
0.000554376
0.000555041
0.000555862
0.000556869
0.000558091
0.00055956
0.000561306
0.000552993
0.000553048
0.000553112
0.000553174
0.000553237
0.000553303
0.000553375
0.000553456
0.00055355
0.000553662
0.000553796
0.000553959
0.000554158
0.000554399
0.000554695
0.000555054
0.00055549
0.00055602
0.00055666
0.00055743
0.000558354
0.000559454
0.000560756
0.000562284
0.000564062
0.000554263
0.000554324
0.0005544
0.000554477
0.000554559
0.00055465
0.000554752
0.000554868
0.000555003
0.00055516
0.000555345
0.000555565
0.000555825
0.000556135
0.000556503
0.00055694
0.000557458
0.000558071
0.000558794
0.000559647
0.000560646
0.000561813
0.000563166
0.000564727
0.000566512
0.000555508
0.000555576
0.000555662
0.000555753
0.000555854
0.000555968
0.000556097
0.000556245
0.000556416
0.000556614
0.000556845
0.000557114
0.000557429
0.000557797
0.000558227
0.000558729
0.000559313
0.000559993
0.000560782
0.000561696
0.00056275
0.00056396
0.000565343
0.000566914
0.000568687
0.000556728
0.000556801
0.000556896
0.000557
0.000557118
0.000557252
0.000557406
0.000557582
0.000557786
0.00055802
0.000558291
0.000558604
0.000558965
0.000559383
0.000559864
0.000560419
0.000561057
0.000561789
0.000562628
0.000563586
0.000564676
0.000565911
0.000567306
0.000568871
0.000570617
0.000557919
0.000557997
0.000558099
0.000558215
0.000558347
0.0005585
0.000558676
0.000558878
0.000559109
0.000559376
0.000559681
0.000560031
0.000560432
0.000560891
0.000561415
0.000562012
0.000562691
0.000563463
0.000564337
0.000565324
0.000566435
0.000567682
0.000569073
0.00057062
0.000572328
0.000559079
0.000559161
0.00055927
0.000559395
0.000559541
0.00055971
0.000559905
0.000560129
0.000560385
0.000560678
0.000561013
0.000561394
0.000561828
0.00056232
0.000562878
0.000563508
0.000564219
0.000565018
0.000565916
0.00056692
0.000568041
0.000569286
0.000570663
0.00057218
0.000573843
0.000560206
0.000560292
0.000560406
0.00056054
0.000560697
0.00056088
0.000561091
0.000561334
0.000561611
0.000561927
0.000562287
0.000562693
0.000563153
0.000563672
0.000564255
0.00056491
0.000565643
0.000566461
0.000567372
0.000568383
0.000569503
0.000570736
0.000572091
0.000573572
0.000575183
0.000561299
0.000561388
0.000561507
0.000561648
0.000561814
0.000562009
0.000562234
0.000562492
0.000562787
0.000563122
0.000563501
0.000563928
0.000564409
0.000564947
0.00056555
0.000566221
0.000566968
0.000567797
0.000568713
0.000569723
0.000570832
0.000572047
0.000573372
0.000574811
0.000576366
0.000562357
0.000562447
0.00056257
0.000562717
0.000562891
0.000563095
0.000563331
0.000563603
0.000563912
0.000564261
0.000564656
0.000565099
0.000565595
0.000566148
0.000566763
0.000567445
0.0005682
0.000569031
0.000569945
0.000570947
0.00057204
0.000573231
0.000574521
0.000575914
0.000577411
0.000563378
0.00056347
0.000563595
0.000563746
0.000563927
0.000564139
0.000564384
0.000564665
0.000564985
0.000565347
0.000565753
0.000566207
0.000566714
0.000567276
0.000567899
0.000568586
0.000569342
0.00057017
0.000571077
0.000572064
0.000573137
0.000574298
0.000575549
0.000576894
0.000578331
0.000564363
0.000564455
0.000564582
0.000564736
0.000564921
0.000565139
0.000565391
0.00056568
0.000566008
0.000566378
0.000566793
0.000567255
0.000567768
0.000568335
0.00056896
0.000569647
0.0005704
0.000571221
0.000572114
0.000573083
0.00057413
0.000575259
0.000576469
0.000577763
0.00057914
0.00056531
0.000565402
0.00056553
0.000565686
0.000565875
0.000566096
0.000566354
0.000566648
0.000566982
0.000567357
0.000567776
0.000568242
0.000568758
0.000569327
0.000569951
0.000570634
0.000571379
0.000572188
0.000573065
0.000574012
0.000575031
0.000576123
0.000577291
0.000578533
0.000579851
0.000566219
0.000566311
0.000566439
0.000566597
0.000566787
0.000567011
0.000567272
0.000567569
0.000567906
0.000568284
0.000568706
0.000569173
0.000569689
0.000570255
0.000570875
0.00057155
0.000572284
0.000573078
0.000573935
0.000574857
0.000575845
0.000576901
0.000578024
0.000579215
0.000580473
0.000567091
0.000567182
0.000567309
0.000567467
0.000567658
0.000567884
0.000568146
0.000568445
0.000568783
0.000569162
0.000569583
0.000570049
0.000570561
0.000571122
0.000571734
0.000572399
0.000573119
0.000573896
0.000574731
0.000575626
0.000576581
0.000577599
0.000578677
0.000579817
0.000581017
0.000567925
0.000568015
0.000568141
0.000568299
0.000568489
0.000568715
0.000568977
0.000569276
0.000569613
0.00056999
0.000570409
0.000570872
0.000571379
0.000571932
0.000572534
0.000573186
0.00057389
0.000574647
0.000575458
0.000576324
0.000577247
0.000578225
0.000579259
0.000580348
0.000581491
0.000568722
0.00056881
0.000568936
0.000569091
0.000569281
0.000569506
0.000569766
0.000570063
0.000570398
0.000570773
0.000571187
0.000571644
0.000572144
0.000572688
0.000573278
0.000573915
0.000574601
0.000575337
0.000576122
0.000576959
0.000577847
0.000578786
0.000579776
0.000580815
0.000581903
0.000569483
0.00056957
0.000569693
0.000569846
0.000570034
0.000570257
0.000570515
0.000570809
0.000571141
0.00057151
0.000571919
0.000572368
0.000572859
0.000573392
0.000573968
0.00057459
0.000575256
0.000575969
0.000576728
0.000577535
0.000578388
0.000579288
0.000580234
0.000581225
0.000582259
0.000570209
0.000570293
0.000570413
0.000570565
0.00057075
0.000570969
0.000571224
0.000571514
0.000571841
0.000572205
0.000572606
0.000573047
0.000573527
0.000574048
0.000574609
0.000575213
0.000575859
0.000576549
0.000577281
0.000578057
0.000578876
0.000579738
0.000580641
0.000581585
0.000582567
0.000570899
0.000570981
0.000571098
0.000571247
0.000571428
0.000571644
0.000571895
0.00057218
0.000572501
0.000572858
0.000573252
0.000573682
0.000574151
0.000574658
0.000575204
0.000575789
0.000576415
0.00057708
0.000577785
0.00057853
0.000579315
0.000580139
0.000581
0.000581898
0.000582831
0.000571555
0.000571635
0.000571749
0.000571894
0.000572072
0.000572284
0.000572529
0.000572809
0.000573124
0.000573473
0.000573857
0.000574277
0.000574733
0.000575226
0.000575755
0.000576322
0.000576925
0.000577566
0.000578244
0.000578959
0.00057971
0.000580497
0.000581318
0.000582171
0.000583056
0.000572179
0.000572255
0.000572366
0.000572508
0.000572682
0.000572889
0.000573129
0.000573402
0.000573709
0.00057405
0.000574424
0.000574833
0.000575276
0.000575754
0.000576266
0.000576813
0.000577395
0.000578012
0.000578663
0.000579347
0.000580066
0.000580816
0.000581597
0.000582409
0.000583248
0.00057277
0.000572844
0.000572951
0.000573089
0.000573258
0.00057346
0.000573694
0.000573961
0.00057426
0.000574592
0.000574956
0.000575353
0.000575782
0.000576244
0.000576739
0.000577267
0.000577827
0.000578419
0.000579043
0.000579699
0.000580385
0.0005811
0.000581843
0.000582614
0.000583409
0.00057333
0.000573401
0.000573505
0.000573639
0.000573803
0.000574
0.000574228
0.000574487
0.000574778
0.0005751
0.000575454
0.000575838
0.000576254
0.0005767
0.000577177
0.000577685
0.000578224
0.000578792
0.00057939
0.000580016
0.000580671
0.000581352
0.000582059
0.00058279
0.000583543
0.00057386
0.000573929
0.000574029
0.000574158
0.000574318
0.000574509
0.000574731
0.000574983
0.000575265
0.000575577
0.000575919
0.000576291
0.000576693
0.000577123
0.000577583
0.000578072
0.000578589
0.000579133
0.000579705
0.000580304
0.000580928
0.000581576
0.000582248
0.000582941
0.000583655
0.000574362
0.000574428
0.000574524
0.000574649
0.000574804
0.000574989
0.000575204
0.000575448
0.000575722
0.000576024
0.000576355
0.000576714
0.000577102
0.000577517
0.000577959
0.000578428
0.000578924
0.000579445
0.000579992
0.000580563
0.000581158
0.000581775
0.000582413
0.00058307
0.000583746
0.000574836
0.000574899
0.000574992
0.000575113
0.000575263
0.000575442
0.00057565
0.000575886
0.000576151
0.000576443
0.000576763
0.000577109
0.000577483
0.000577882
0.000578307
0.000578757
0.000579232
0.000579731
0.000580253
0.000580798
0.000581364
0.000581951
0.000582556
0.000583179
0.000583819
0.000575284
0.000575344
0.000575433
0.00057555
0.000575695
0.000575868
0.000576069
0.000576298
0.000576553
0.000576836
0.000577144
0.000577478
0.000577837
0.000578221
0.000578629
0.000579061
0.000579515
0.000579992
0.000580491
0.00058101
0.000581549
0.000582106
0.000582681
0.000583272
0.000583877
0.000575706
0.000575764
0.00057585
0.000575962
0.000576102
0.000576269
0.000576463
0.000576684
0.000576931
0.000577203
0.000577501
0.000577822
0.000578167
0.000578536
0.000578927
0.000579341
0.000579776
0.000580231
0.000580707
0.000581202
0.000581714
0.000582244
0.000582789
0.000583349
0.000583921
0.000576104
0.00057616
0.000576242
0.00057635
0.000576485
0.000576647
0.000576834
0.000577047
0.000577285
0.000577548
0.000577834
0.000578143
0.000578475
0.000578829
0.000579204
0.0005796
0.000580015
0.00058045
0.000580904
0.000581375
0.000581862
0.000582365
0.000582882
0.000583412
0.000583954
0.00057648
0.000576533
0.000576612
0.000576716
0.000576846
0.000577002
0.000577183
0.000577388
0.000577618
0.000577871
0.000578146
0.000578443
0.000578762
0.000579101
0.00057946
0.000579839
0.000580236
0.000580651
0.000581083
0.000581532
0.000581995
0.000582473
0.000582963
0.000583465
0.000583977
0.000576833
0.000576884
0.00057696
0.000577061
0.000577186
0.000577336
0.000577511
0.000577709
0.00057793
0.000578173
0.000578438
0.000578723
0.000579029
0.000579354
0.000579698
0.00058006
0.000580439
0.000580835
0.000581247
0.000581674
0.000582114
0.000582567
0.000583032
0.000583507
0.000583992
0.000577166
0.000577215
0.000577288
0.000577385
0.000577506
0.000577651
0.000577819
0.00057801
0.000578223
0.000578457
0.000578711
0.000578985
0.000579278
0.00057959
0.000579919
0.000580265
0.000580627
0.000581005
0.000581397
0.000581803
0.000582221
0.000582651
0.000583092
0.000583542
0.000584
0.000577479
0.000577527
0.000577597
0.000577691
0.000577807
0.000577947
0.000578109
0.000578293
0.000578498
0.000578723
0.000578967
0.00057923
0.000579511
0.000579809
0.000580124
0.000580455
0.0005808
0.00058116
0.000581534
0.00058192
0.000582317
0.000582726
0.000583143
0.000583569
0.000584002
0.000577774
0.00057782
0.000577888
0.000577978
0.000578091
0.000578226
0.000578382
0.000578559
0.000578756
0.000578973
0.000579207
0.00057946
0.000579729
0.000580014
0.000580315
0.000580631
0.000580961
0.000581304
0.000581659
0.000582026
0.000582404
0.000582792
0.000583187
0.000583591
0.000584
0.000578051
0.000578096
0.000578162
0.00057825
0.000578359
0.000578489
0.00057864
0.00057881
0.000579
0.000579208
0.000579433
0.000579675
0.000579933
0.000580206
0.000580494
0.000580795
0.00058111
0.000581437
0.000581775
0.000582124
0.000582483
0.00058285
0.000583225
0.000583607
0.000583995
0.000578312
0.000578356
0.000578421
0.000578505
0.000578611
0.000578737
0.000578882
0.000579047
0.000579229
0.000579429
0.000579645
0.000579877
0.000580124
0.000580386
0.000580661
0.000580948
0.000581248
0.00058156
0.000581882
0.000582214
0.000582554
0.000582903
0.000583259
0.00058362
0.000583986
0.000578558
0.000578602
0.000578665
0.000578747
0.000578849
0.000578971
0.000579112
0.00057927
0.000579446
0.000579638
0.000579846
0.000580068
0.000580305
0.000580555
0.000580817
0.000581092
0.000581378
0.000581674
0.000581981
0.000582296
0.00058262
0.00058295
0.000583288
0.00058363
0.000583976
0.000578789
0.000578833
0.000578895
0.000578975
0.000579075
0.000579193
0.000579329
0.000579482
0.000579651
0.000579836
0.000580035
0.000580248
0.000580475
0.000580713
0.000580964
0.000581226
0.000581499
0.000581781
0.000582073
0.000582372
0.00058268
0.000582994
0.000583313
0.000583637
0.000583965
0.000579007
0.000579051
0.000579112
0.000579191
0.000579288
0.000579403
0.000579535
0.000579682
0.000579845
0.000580023
0.000580214
0.000580419
0.000580635
0.000580864
0.000581103
0.000581353
0.000581613
0.000581882
0.000582159
0.000582444
0.000582735
0.000583033
0.000583336
0.000583643
0.000583954
0.000579213
0.000579257
0.000579319
0.000579396
0.000579491
0.000579603
0.000579731
0.000579873
0.000580031
0.000580201
0.000580385
0.000580581
0.000580788
0.000581006
0.000581235
0.000581473
0.00058172
0.000581976
0.00058224
0.00058251
0.000582787
0.00058307
0.000583357
0.000583648
0.000583942
0.000579408
0.000579453
0.000579514
0.000579592
0.000579685
0.000579794
0.000579918
0.000580056
0.000580207
0.000580372
0.000580548
0.000580735
0.000580934
0.000581142
0.00058136
0.000581587
0.000581822
0.000582066
0.000582316
0.000582573
0.000582836
0.000583104
0.000583377
0.000583652
0.000583931
0.000579592
0.000579639
0.000579701
0.000579778
0.00057987
0.000579977
0.000580097
0.000580231
0.000580377
0.000580535
0.000580704
0.000580884
0.000581073
0.000581272
0.00058148
0.000581696
0.00058192
0.000582151
0.000582389
0.000582633
0.000582883
0.000583137
0.000583395
0.000583657
0.00058392
0.000579767
0.000579816
0.00057988
0.000579957
0.000580048
0.000580153
0.000580271
0.0005804
0.000580541
0.000580693
0.000580855
0.000581027
0.000581208
0.000581397
0.000581595
0.0005818
0.000582013
0.000582233
0.000582459
0.00058269
0.000582927
0.000583168
0.000583413
0.000583661
0.000583911
0.000579933
0.000579985
0.000580052
0.00058013
0.000580221
0.000580324
0.000580439
0.000580565
0.000580701
0.000580846
0.000581001
0.000581165
0.000581338
0.000581518
0.000581706
0.000581901
0.000582103
0.000582311
0.000582525
0.000582745
0.00058297
0.000583198
0.000583431
0.000583666
0.000583903
0.000580093
0.000580149
0.000580218
0.000580298
0.000580389
0.000580491
0.000580603
0.000580725
0.000580856
0.000580996
0.000581144
0.0005813
0.000581464
0.000581635
0.000581814
0.000581998
0.00058219
0.000582387
0.00058259
0.000582798
0.000583011
0.000583228
0.000583448
0.000583671
0.000583896
0.000580247
0.000580307
0.000580381
0.000580463
0.000580554
0.000580655
0.000580765
0.000580883
0.00058101
0.000581144
0.000581285
0.000581433
0.000581588
0.00058175
0.000581919
0.000582094
0.000582274
0.000582461
0.000582653
0.00058285
0.000583051
0.000583257
0.000583466
0.000583677
0.000583891
0.000580396
0.000580462
0.000580541
0.000580625
0.000580718
0.000580819
0.000580926
0.000581041
0.000581162
0.00058129
0.000581424
0.000581564
0.000581711
0.000581863
0.000582022
0.000582186
0.000582357
0.000582533
0.000582714
0.0005829
0.000583091
0.000583285
0.000583483
0.000583684
0.000583886
0.000580542
0.000580615
0.0005807
0.000580788
0.000580883
0.000580983
0.000581088
0.000581199
0.000581315
0.000581436
0.000581563
0.000581694
0.000581832
0.000581975
0.000582123
0.000582278
0.000582438
0.000582603
0.000582774
0.000582949
0.000583129
0.000583313
0.0005835
0.000583691
0.000583884
0.000580686
0.000580769
0.000580861
0.000580954
0.00058105
0.00058115
0.000581253
0.00058136
0.00058147
0.000581584
0.000581702
0.000581825
0.000581952
0.000582085
0.000582224
0.000582368
0.000582517
0.000582672
0.000582832
0.000582997
0.000583166
0.00058334
0.000583517
0.000583698
0.000583881
0.000580831
0.000580924
0.000581025
0.000581124
0.000581223
0.000581322
0.000581423
0.000581524
0.000581628
0.000581734
0.000581843
0.000581956
0.000582073
0.000582196
0.000582323
0.000582456
0.000582595
0.000582739
0.000582888
0.000583043
0.000583202
0.000583366
0.000583534
0.000583705
0.00058388
0.000580979
0.000581084
0.000581197
0.000581302
0.000581403
0.000581502
0.000581599
0.000581695
0.00058179
0.000581887
0.000581986
0.000582088
0.000582194
0.000582305
0.000582421
0.000582543
0.00058267
0.000582804
0.000582942
0.000583087
0.000583236
0.000583391
0.00058355
0.000583712
0.000583878
0.000581132
0.000581253
0.000581378
0.000581491
0.000581595
0.000581693
0.000581785
0.000581873
0.00058196
0.000582046
0.000582133
0.000582223
0.000582316
0.000582415
0.000582519
0.000582629
0.000582744
0.000582866
0.000582995
0.000583129
0.000583269
0.000583414
0.000583564
0.000583718
0.000583877
0.000581294
0.000581434
0.000581576
0.000581697
0.000581803
0.000581898
0.000581984
0.000582062
0.000582137
0.00058221
0.000582283
0.000582359
0.000582439
0.000582524
0.000582615
0.000582712
0.000582816
0.000582926
0.000583044
0.000583168
0.000583298
0.000583434
0.000583576
0.000583723
0.000583874
0.000581469
0.000581634
0.000581794
0.000581924
0.000582032
0.000582122
0.000582198
0.000582264
0.000582323
0.00058238
0.000582438
0.000582498
0.000582562
0.000582632
0.000582709
0.000582793
0.000582884
0.000582983
0.00058309
0.000583204
0.000583325
0.000583452
0.000583586
0.000583725
0.000583869
0.000581665
0.000581859
0.000582042
0.000582181
0.000582288
0.000582369
0.000582431
0.00058248
0.000582521
0.000582558
0.000582596
0.000582638
0.000582684
0.000582738
0.0005828
0.00058287
0.000582948
0.000583035
0.000583131
0.000583235
0.000583347
0.000583466
0.000583592
0.000583724
0.000583862
0.000581891
0.000582122
0.00058233
0.000582477
0.000582578
0.000582645
0.000582687
0.000582713
0.000582729
0.000582743
0.000582758
0.000582778
0.000582805
0.000582841
0.000582886
0.000582942
0.000583007
0.000583082
0.000583167
0.000583261
0.000583364
0.000583475
0.000583594
0.00058372
0.000583852
0.000582159
0.000582436
0.000582674
0.000582825
0.000582913
0.000582956
0.000582969
0.000582964
0.000582949
0.000582933
0.000582921
0.000582917
0.000582922
0.000582939
0.000582967
0.000583007
0.000583059
0.000583122
0.000583197
0.000583281
0.000583376
0.000583479
0.000583591
0.000583711
0.000583838
0.000582492
0.000582824
0.000583094
0.000583241
0.000583302
0.000583309
0.00058328
0.000583233
0.000583179
0.000583127
0.000583084
0.000583052
0.000583033
0.000583029
0.000583039
0.000583064
0.000583103
0.000583154
0.000583219
0.000583294
0.000583381
0.000583477
0.000583583
0.000583697
0.000583819
0.000582925
0.000583322
0.00058362
0.000583745
0.000583758
0.000583707
0.00058362
0.000583518
0.000583415
0.000583321
0.000583241
0.000583179
0.000583134
0.000583109
0.000583101
0.000583111
0.000583136
0.000583177
0.000583231
0.000583299
0.000583378
0.000583468
0.000583568
0.000583677
0.000583795
0.00058352
0.000583983
0.000584293
0.000584363
0.000584294
0.000584156
0.000583988
0.000583814
0.000583652
0.000583508
0.000583387
0.000583292
0.000583221
0.000583174
0.000583149
0.000583144
0.000583157
0.000583188
0.000583234
0.000583294
0.000583366
0.00058345
0.000583545
0.00058365
0.000583765
0.000584396
0.000584895
0.00058517
0.000585124
0.000584918
0.000584652
0.000584374
0.000584112
0.000583877
0.000583678
0.000583515
0.000583386
0.000583289
0.000583221
0.00058318
0.000583162
0.000583165
0.000583186
0.000583225
0.000583278
0.000583345
0.000583425
0.000583516
0.000583617
0.000583728
0.00058576
0.00058619
0.000586323
0.000586055
0.00058563
0.000585182
0.000584762
0.000584392
0.000584078
0.00058382
0.000583613
0.000583452
0.000583332
0.000583246
0.000583191
0.000583162
0.000583156
0.00058317
0.000583203
0.000583252
0.000583315
0.00058339
0.000583478
0.000583576
0.000583685
0.00058797
0.000588065
0.000587827
0.000587162
0.000586406
0.000585711
0.000585119
0.000584629
0.000584232
0.000583917
0.000583671
0.000583483
0.000583343
0.000583243
0.000583178
0.000583141
0.00058313
0.00058314
0.000583168
0.000583214
0.000583274
0.000583347
0.000583432
0.000583528
0.000583635
0.000591912
0.000590914
0.000589733
0.00058838
0.000587159
0.000586166
0.000585384
0.000584776
0.000584307
0.000583947
0.000583672
0.000583466
0.000583315
0.000583208
0.000583137
0.000583097
0.000583083
0.000583091
0.000583118
0.000583162
0.000583221
0.000583293
0.000583377
0.000583472
0.000583577
0.000600795
0.000595609
0.000591972
0.000589502
0.000587708
0.000586402
0.000585457
0.000584768
0.000584258
0.000583879
0.000583597
0.000583388
0.000583237
0.000583131
0.000583062
0.000583024
0.000583012
0.000583021