/*--------------------------------*- C++ -*----------------------------------*\
  =========                 |
  \\      /  F ield         | OpenFOAM: The Open Source CFD Toolbox
   \\    /   O peration     | Website:  https://openfoam.org
    \\  /    A nd           | Version:  13
     \\/     M anipulation  |
\*---------------------------------------------------------------------------*/
FoamFile
{
    format      ascii;
    class       surfaceScalarField;
    location    "18";
    object      phi;
}
// * * * * * * * * * * * * * * * * * * * * * * * * * * * * * * * * * * * * * //

dimensions      [0 3 -1 0 0 0 0];

internalField   nonuniform List<scalar> 
12590
(
1.03199e-13
-1.03218e-13
3.69858e-13
-2.66684e-13
7.78014e-13
-4.08182e-13
1.34333e-12
-5.65338e-13
2.01132e-12
-6.68019e-13
2.72725e-12
-7.15963e-13
3.44007e-12
-7.12848e-13
4.10613e-12
-6.66082e-13
4.64848e-12
-5.42379e-13
5.00351e-12
-3.55057e-13
5.19132e-12
-1.87839e-13
5.19678e-12
-5.48559e-15
5.01618e-12
1.80582e-13
4.66108e-12
3.55065e-13
4.1611e-12
4.99956e-13
3.53941e-12
6.21661e-13
2.83095e-12
7.08432e-13
2.06701e-12
7.63913e-13
1.37566e-12
6.91322e-13
7.7302e-13
6.02611e-13
3.01471e-13
4.71519e-13
5.7671e-16
3.00863e-13
-1.30026e-13
1.30559e-13
-8.67594e-14
-4.33094e-14
-8.67639e-14
3.3761e-13
-4.40861e-13
1.04215e-12
-9.71263e-13
2.03046e-12
-1.39653e-12
3.21819e-12
-1.7531e-12
4.50945e-12
-1.95932e-12
5.74772e-12
-1.95427e-12
6.82482e-12
-1.78999e-12
7.68188e-12
-1.52318e-12
8.30824e-12
-1.16878e-12
8.51309e-12
-5.5994e-13
8.36089e-12
-3.56827e-14
7.84533e-12
5.10041e-13
6.99213e-12
1.03375e-12
5.83729e-12
1.50986e-12
4.55348e-12
1.78373e-12
3.12811e-12
2.04699e-12
1.65259e-12
2.18391e-12
3.30842e-13
2.08562e-12
-7.53006e-13
1.77513e-12
-1.45656e-12
1.30612e-12
-1.73008e-12
7.45e-13
-1.46364e-12
3.43783e-14
-8.84796e-13
-4.48339e-13
-2.96333e-13
-6.31823e-13
-3.83104e-13
3.94201e-13
-8.35098e-13
1.2389e-12
-1.81601e-12
2.4051e-12
-2.56277e-12
3.81928e-12
-3.16733e-12
5.27573e-12
-3.41581e-12
6.64048e-12
-3.31906e-12
7.741e-12
-2.89055e-12
8.5198e-12
-2.30202e-12
8.9584e-12
-1.60743e-12
8.96549e-12
-5.67071e-13
8.54489e-12
3.8488e-13
7.7065e-12
1.34838e-12
6.68665e-12
2.05356e-12
5.38775e-12
2.80871e-12
3.73474e-12
3.4367e-12
1.96052e-12
3.82117e-12
2.7756e-13
3.86682e-12
-1.16963e-12
3.53277e-12
-2.19678e-12
2.80223e-12
-2.74663e-12
1.85592e-12
-2.70673e-12
7.05047e-13
-1.98046e-12
-6.91943e-13
-1.03089e-12
-1.39797e-12
-2.63044e-13
-1.39972e-12
-6.46155e-13
3.6588e-13
-1.20102e-12
1.10775e-12
-2.55792e-12
2.19093e-12
-3.64599e-12
3.48882e-12
-4.46527e-12
4.83373e-12
-4.76077e-12
6.05486e-12
-4.54023e-12
7.02937e-12
-3.8651e-12
7.66747e-12
-2.94017e-12
7.9576e-12
-1.89759e-12
7.88004e-12
-4.89555e-13
7.40739e-12
8.57489e-13
6.77299e-12
1.98274e-12
5.71162e-12
3.11488e-12
4.31599e-12
4.2043e-12
2.73043e-12
5.02221e-12
1.08966e-12
5.46189e-12
-4.61879e-13
5.41832e-12
-1.7609e-12
4.83174e-12
-2.64337e-12
3.68465e-12
-3.13944e-12
2.35195e-12
-2.99116e-12
5.56719e-13
-2.24949e-12
-1.43367e-12
-1.19254e-12
-2.45498e-12
-3.20885e-13
-2.27143e-12
-9.67048e-13
2.76891e-13
-1.47795e-12
8.0834e-13
-3.08942e-12
1.65339e-12
-4.49109e-12
2.71834e-12
-5.53026e-12
3.83643e-12
-5.87891e-12
4.84258e-12
-5.54642e-12
5.63733e-12
-4.6599e-12
6.1197e-12
-3.42259e-12
6.26479e-12
-2.04273e-12
6.11564e-12
-3.40444e-13
5.74191e-12
1.23117e-12
5.1066e-12
2.61801e-12
4.08775e-12
4.13369e-12
2.82783e-12
5.46418e-12
1.44496e-12
6.40503e-12
5.70382e-14
6.84977e-12
-1.24299e-12
6.7183e-12
-2.32291e-12
5.91162e-12
-3.04698e-12
4.40867e-12
-3.46232e-12
2.76724e-12
-3.16781e-12
2.62162e-13
-2.37146e-12
-2.23008e-12
-1.27284e-12
-3.55366e-12
-3.26209e-13
-3.21812e-12
-1.29327e-12
1.66294e-13
-1.64429e-12
4.5947e-13
-3.38264e-12
1.02948e-12
-5.06115e-12
1.81513e-12
-6.31596e-12
2.65521e-12
-6.71905e-12
3.39011e-12
-6.28137e-12
3.90734e-12
-5.17718e-12
4.18339e-12
-3.6987e-12
4.22636e-12
-2.08575e-12
4.00896e-12
-1.23085e-13
3.69507e-12
1.54502e-12
2.97283e-12
3.34019e-12
2.01176e-12
5.09471e-12
9.61071e-13
6.51483e-12
-1.57784e-13
7.52384e-12
-1.27678e-12
7.96872e-12
-2.3026e-12
7.74408e-12
-3.13844e-12
6.74741e-12
-3.70552e-12
4.9757e-12
-3.98052e-12
3.04219e-12
-3.58626e-12
-1.32143e-13
-2.69152e-12
-3.12487e-12
-1.49091e-12
-4.75433e-12
-3.72841e-13
-4.33625e-12
-1.66612e-12
4.84561e-14
-1.69279e-12
6.39497e-14
-3.39819e-12
3.04959e-13
-5.30222e-12
8.15487e-13
-6.82654e-12
1.34618e-12
-7.2498e-12
1.77357e-12
-6.70881e-12
1.99801e-12
-5.40167e-12
2.06958e-12
-3.77032e-12
1.97322e-12
-1.98945e-12
1.65198e-12
1.98113e-13
1.2259e-12
1.97104e-12
5.73991e-13
3.99206e-12
-1.93793e-13
5.86245e-12
-1.07719e-12
7.39818e-12
-1.9794e-12
8.426e-12
-2.85178e-12
8.84106e-12
-3.60409e-12
8.49633e-12
-4.16936e-12
7.31264e-12
-4.55176e-12
5.35805e-12
-4.67116e-12
3.16154e-12
-4.14086e-12
-6.62504e-13
-3.08071e-12
-4.18507e-12
-1.74147e-12
-6.09363e-12
-4.05068e-13
-5.67272e-12
-2.0712e-12
-9.80019e-14
-1.59484e-12
-3.87817e-13
-3.10843e-12
-4.50179e-13
-5.23991e-12
-3.0986e-13
-6.96692e-12
-1.5189e-13
-7.40782e-12
-8.22024e-14
-6.77855e-12
-1.11891e-13
-5.37203e-12
-2.7177e-13
-3.61049e-12
-5.82594e-13
-1.67868e-12
-8.4134e-13
4.56809e-13
-1.37919e-12
2.50884e-12
-2.01325e-12
4.62608e-12
-2.67516e-12
6.52431e-12
-3.37475e-12
8.09773e-12
-4.0788e-12
9.13e-12
-4.67981e-12
9.44204e-12
-5.13685e-12
8.95333e-12
-5.4082e-12
7.58393e-12
-5.68445e-12
5.63426e-12
-5.63753e-12
3.11457e-12
-4.92122e-12
-1.37886e-12
-3.63687e-12
-5.46948e-12
-2.10332e-12
-7.62724e-12
-4.96e-13
-7.28009e-12
-2.56721e-12
-2.62723e-13
-1.33217e-12
-9.13744e-13
-2.45748e-12
-1.26588e-12
-4.88784e-12
-1.59819e-12
-6.63467e-12
-1.86799e-12
-7.13809e-12
-2.21986e-12
-6.42673e-12
-2.51707e-12
-5.07489e-12
-2.83812e-12
-3.28949e-12
-3.32436e-12
-1.19249e-12
-3.71917e-12
8.51562e-13
-4.25259e-12
3.04221e-12
-4.79149e-12
5.16492e-12
-5.31218e-12
7.04495e-12
-5.78814e-12
8.57365e-12
-6.28597e-12
9.62779e-12
-6.62208e-12
9.7781e-12
-6.75511e-12
9.08631e-12
-6.67976e-12
7.50853e-12
-6.99831e-12
5.95277e-12
-6.65284e-12
2.76905e-12
-5.68388e-12
-2.34788e-12
-4.13073e-12
-7.02268e-12
-2.359e-12
-9.39904e-12
-5.40133e-13
-9.09902e-12
-3.10735e-12
-4.45866e-13
-8.86367e-13
-1.4572e-12
-1.44622e-12
-2.28562e-12
-4.05949e-12
-3.01375e-12
-5.90661e-12
-3.76197e-12
-6.38993e-12
-4.47897e-12
-5.7098e-12
-5.18041e-12
-4.37352e-12
-5.75054e-12
-2.71942e-12
-6.38665e-12
-5.56432e-13
-6.92788e-12
1.39273e-12
-7.44538e-12
3.55967e-12
-7.84903e-12
5.56852e-12
-8.167e-12
7.36288e-12
-8.41072e-12
8.81732e-12
-8.55254e-12
9.76956e-12
-8.63758e-12
9.8631e-12
-8.50829e-12
8.95698e-12
-8.2466e-12
7.24681e-12
-8.07195e-12
5.77807e-12
-7.53717e-12
2.23423e-12
-6.36214e-12
-3.52296e-12
-4.54888e-12
-8.83599e-12
-2.54522e-12
-1.14028e-11
-5.36028e-13
-1.11083e-11
-3.64339e-12
-6.48762e-13
-2.37673e-13
-2.0176e-12
-7.74569e-14
-3.38367e-12
-2.6935e-12
-4.51782e-12
-4.77254e-12
-5.6501e-12
-5.25771e-12
-6.70467e-12
-4.65529e-12
-7.66351e-12
-3.41475e-12
-8.73782e-12
-1.64517e-12
-9.39742e-12
1.03118e-13
-1.0071e-11
2.06629e-12
-1.05894e-11
4.07801e-12
-1.09466e-11
5.92568e-12
-1.10974e-11
7.51365e-12
-1.1008e-11
8.72788e-12
-1.08029e-11
9.5644e-12
-1.0545e-11
9.60516e-12
-1.01141e-11
8.52596e-12
-9.65513e-12
6.78784e-12
-9.08137e-12
5.20426e-12
-8.32263e-12
1.47545e-12
-6.97793e-12
-4.86771e-12
-4.92307e-12
-1.08909e-11
-2.75596e-12
-1.35699e-11
-5.50654e-13
-1.33136e-11
-4.19406e-12
-8.02661e-13
5.64913e-13
-2.51025e-12
1.63005e-12
-4.26269e-12
-9.4114e-13
-5.94187e-12
-3.09344e-12
-7.52277e-12
-3.67689e-12
-8.96852e-12
-3.20962e-12
-1.03059e-11
-2.07747e-12
-1.13324e-11
-6.18687e-13
-1.21937e-11
9.64385e-13
-1.28992e-11
2.77175e-12
-1.33372e-11
4.51591e-12
-1.35611e-11
6.1496e-12
-1.35516e-11
7.50408e-12
-1.33081e-11
8.48433e-12
-1.27859e-11
9.04219e-12
-1.20776e-11
8.89685e-12
-1.124e-11
7.68833e-12
-1.06985e-11
6.24625e-12
-9.87344e-12
4.37919e-12
-8.92583e-12
5.27804e-13
-7.52883e-12
-6.26475e-12
-5.39377e-12
-1.3026e-11
-3.10685e-12
-1.58569e-11
-5.83393e-13
-1.58371e-11
-4.77746e-12
-9.71443e-13
1.53627e-12
-3.05405e-12
3.71256e-12
-5.19522e-12
1.19993e-12
-7.27576e-12
-1.01299e-12
-9.23122e-12
-1.72152e-12
-1.09582e-11
-1.48274e-12
-1.23485e-11
-6.87212e-13
-1.3438e-11
4.70697e-13
-1.4341e-11
1.86739e-12
-1.49349e-11
3.36554e-12
-1.52831e-11
4.86411e-12
-1.53713e-11
6.23772e-12
-1.51866e-11
7.31933e-12
-1.46971e-11
7.99484e-12
-1.39168e-11
8.26186e-12
-1.30964e-11
8.07637e-12
-1.18687e-11
6.4606e-12
-1.11815e-11
5.55903e-12
-1.00559e-11
3.25354e-12
-8.97519e-12
-5.52886e-13
-7.62762e-12
-7.61235e-12
-5.66136e-12
-1.49923e-11
-3.30012e-12
-1.82182e-11
-5.30079e-13
-1.86072e-11
-5.30755e-12
-1.11451e-12
2.65068e-12
-3.4781e-12
6.07605e-12
-5.97473e-12
3.69646e-12
-8.43472e-12
1.4469e-12
-1.06264e-11
4.70038e-13
-1.24736e-11
3.64349e-13
-1.39023e-11
7.41498e-13
-1.49578e-11
1.52608e-12
-1.56132e-11
2.52268e-12
-1.59778e-11
3.73018e-12
-1.60654e-11
4.95166e-12
-1.58412e-11
6.01351e-12
-1.53733e-11
6.85131e-12
-1.47215e-11
7.34311e-12
-1.38306e-11
7.37085e-12
-1.27402e-11
6.98603e-12
-1.17923e-11
5.5126e-12
-1.06406e-11
4.40734e-12
-9.48563e-12
2.09856e-12
-8.29878e-12
-1.73975e-12
-7.29501e-12
-8.61614e-12
-5.715e-12
-1.65723e-11
-3.43443e-12
-2.04988e-11
-4.7917e-13
-2.15625e-11
-5.78672e-12
-1.17878e-12
3.82936e-12
-3.76793e-12
8.66508e-12
-6.60709e-12
6.5355e-12
-9.26024e-12
4.09993e-12
-1.1573e-11
2.78273e-12
-1.34022e-11
2.19337e-12
-1.47197e-11
2.0589e-12
-1.54921e-11
2.29841e-12
-1.58366e-11
2.86718e-12
-1.5771e-11
3.66447e-12
-1.53576e-11
4.53826e-12
-1.46161e-11
5.27194e-12
-1.36715e-11
5.9067e-12
-1.26672e-11
6.33873e-12
-1.16685e-11
6.37216e-12
-1.05866e-11
5.90408e-12
-9.7974e-12
4.72344e-12
-8.97771e-12
3.58764e-12
-8.10145e-12
1.22229e-12
-7.08684e-12
-2.75438e-12
-6.63873e-12
-9.06426e-12
-5.73384e-12
-1.74772e-11
-3.73248e-12
-2.25001e-11
-4.91272e-13
-2.48037e-11
-6.278e-12
-1.21714e-12
5.04639e-12
-3.98693e-12
1.14347e-11
-6.85056e-12
9.39898e-12
-9.61731e-12
6.86655e-12
-1.18898e-11
5.05511e-12
-1.35454e-11
3.84884e-12
-1.45689e-11
3.08222e-12
-1.49734e-11
2.70283e-12
-1.48375e-11
2.73116e-12
-1.41388e-11
2.96572e-12
-1.30624e-11
3.46178e-12
-1.17422e-11
3.9517e-12
-1.02763e-11
4.44075e-12
-8.69617e-12
4.75861e-12
-7.19851e-12
4.87447e-12
-6.03002e-12
4.73557e-12
-5.30473e-12
3.99813e-12
-4.98786e-12
3.27075e-12
-4.90674e-12
1.14116e-12
-5.06056e-12
-2.60057e-12
-5.69578e-12
-8.42905e-12
-5.94205e-12
-1.7231e-11
-4.47502e-12
-2.39672e-11
-3.88951e-13
-2.88898e-11
-6.66695e-12
-1.13655e-12
6.18281e-12
-3.8921e-12
1.41901e-11
-6.76527e-12
1.2272e-11
-9.31226e-12
9.41338e-12
-1.1373e-11
7.11569e-12
-1.26161e-11
5.09183e-12
-1.30917e-11
3.55761e-12
-1.28119e-11
2.42295e-12
-1.18245e-11
1.74364e-12
-1.03273e-11
1.46836e-12
-8.34997e-12
1.48437e-12
-6.23838e-12
1.84003e-12
-4.05088e-12
2.25318e-12
-1.80796e-12
2.51563e-12
2.63667e-13
2.8028e-12
1.96663e-12
3.03257e-12
2.83342e-12
3.1313e-12
2.65669e-12
3.44744e-12
1.15049e-12
2.64733e-12
-1.41558e-12
-3.45337e-14
-3.87065e-12
-5.97401e-12
-5.59804e-12
-1.55036e-11
-5.28632e-12
-2.42789e-11
5.20954e-13
-3.46971e-11
-6.14602e-12
-1.04087e-12
7.22354e-12
-3.7905e-12
1.69396e-11
-6.50989e-12
1.49912e-11
-8.51815e-12
1.14215e-11
-9.78975e-12
8.38711e-12
-1.01994e-11
5.50126e-12
-9.6959e-12
3.05396e-12
-8.46177e-12
1.18864e-12
-6.46994e-12
-2.48364e-13
-3.81749e-12
-1.18424e-12
-6.80342e-13
-1.65291e-12
2.78328e-12
-1.62371e-12
6.33407e-12
-1.29773e-12
9.26449e-12
-4.14879e-13
1.15958e-11
4.71409e-13
1.31148e-11
1.51343e-12
1.37863e-11
2.45975e-12
1.39305e-11
3.30314e-12
1.20383e-11
4.53946e-12
8.81205e-12
3.19168e-12
3.2493e-12
-4.1132e-13
-3.19618e-12
-9.05817e-12
-6.43585e-12
-2.10393e-11
3.38987e-12
-4.45229e-11
-2.75618e-12
-8.73238e-13
8.09664e-12
-3.44617e-12
1.95124e-11
-5.92907e-12
1.7474e-11
-7.52119e-12
1.30134e-11
-8.01454e-12
8.88025e-12
-7.29553e-12
4.78203e-12
-5.42502e-12
1.18322e-12
-2.50624e-12
-1.73037e-12
1.12216e-12
-3.87698e-12
5.39631e-12
-5.45859e-12
1.01036e-11
-6.36035e-12
1.48968e-11
-6.41708e-12
1.92565e-11
-5.65768e-12
2.32564e-11
-4.41492e-12
2.60408e-11
-2.31306e-12
2.73789e-11
1.752e-13
2.69659e-11
2.87257e-12
2.38336e-11
6.43537e-12
1.88016e-11
9.57135e-12
9.5358e-12
1.24573e-11
-1.78777e-12
1.09121e-11
-1.01e-11
-7.46067e-13
-2.785e-12
-2.83544e-11
1.64064e-11
-6.37144e-11
1.36502e-11
-6.33026e-13
8.72954e-12
-2.84558e-12
2.17248e-11
-4.7927e-12
1.94209e-11
-5.58041e-12
1.38009e-11
-4.85327e-12
8.15287e-12
-2.93028e-12
2.85878e-12
2.25471e-13
-1.9728e-12
4.45597e-12
-5.96114e-12
9.77892e-12
-9.2002e-12
1.56868e-11
-1.13667e-11
2.19515e-11
-1.26253e-11
2.81467e-11
-1.26125e-11
3.39091e-11
-1.14203e-11
3.86556e-11
-9.16159e-12
4.14051e-11
-5.06277e-12
4.23588e-11
-7.78616e-13
4.09061e-11
4.32503e-12
3.74903e-11
9.85106e-12
3.32692e-11
1.37923e-11
3.13391e-11
1.43873e-11
3.38214e-11
8.42963e-12
4.11893e-11
-8.11412e-12
6.36292e-11
-5.07944e-11
7.15315e-11
-7.16168e-11
8.51816e-11
-3.78916e-16
8.7298e-12
-9.50582e-13
2.26748e-11
-1.83029e-12
2.03004e-11
-1.84516e-12
1.38156e-11
-6.29136e-13
6.93662e-12
1.90261e-12
3.26774e-13
5.5142e-12
-5.58466e-12
1.0403e-11
-1.08503e-11
1.63361e-11
-1.51336e-11
2.30254e-11
-1.80563e-11
2.9942e-11
-1.95421e-11
3.69363e-11
-1.96071e-11
4.36325e-11
-1.81167e-11
4.95973e-11
-1.51267e-11
5.47128e-11
-1.01784e-11
5.69651e-11
-3.03117e-12
5.64791e-11
4.81092e-12
5.18458e-11
1.44842e-11
4.0647e-11
2.49909e-11
1.87749e-11
3.62592e-11
-2.05803e-11
4.77847e-11
-8.9381e-11
6.06865e-11
-2.13593e-10
7.34178e-11
-4.01169e-10
1.15959e-10
3.17049e-10
-6.33037e-10
1.97149e-13
8.53254e-12
-2.74971e-13
2.31468e-11
-3.98902e-13
2.04242e-11
5.23741e-13
1.28927e-11
2.73723e-12
4.7229e-12
6.30821e-12
-3.24446e-12
1.12921e-11
-1.05688e-11
1.74954e-11
-1.70539e-11
2.45826e-11
-2.2221e-11
3.25553e-11
-2.60293e-11
4.11496e-11
-2.81366e-11
5.00322e-11
-2.84899e-11
5.8543e-11
-2.66277e-11
6.64162e-11
-2.30001e-11
7.30308e-11
-1.67932e-11
7.77096e-11
-7.71016e-12
7.91774e-11
3.34296e-12
7.60587e-11
1.76027e-11
6.58716e-11
3.51778e-11
4.54686e-11
5.66621e-11
7.98976e-12
8.52634e-11
-5.57849e-11
1.24461e-10
-1.652e-10
1.82833e-10
-3.35074e-10
2.85833e-10
4.95553e-10
-5.13578e-10
4.01626e-13
8.13084e-12
4.47024e-13
2.31013e-11
1.1051e-12
1.9766e-11
3.02006e-12
1.09776e-11
6.36525e-12
1.37749e-12
1.11693e-11
-8.04875e-12
1.74292e-11
-1.6829e-11
2.49394e-11
-2.45643e-11
3.36458e-11
-3.09277e-11
4.32702e-11
-3.56539e-11
5.36238e-11
-3.84905e-11
6.43544e-11
-3.92208e-11
7.52888e-11
-3.75622e-11
8.56758e-11
-3.33872e-11
9.49646e-11
-2.60821e-11
1.03009e-10
-1.57546e-11
1.08068e-10
-1.71615e-12
1.091e-10
1.65703e-11
1.04031e-10
4.02466e-11
8.96359e-11
7.10574e-11
6.30232e-11
1.11876e-10
1.77183e-11
1.69766e-10
-5.36712e-11
2.54222e-10
-1.52736e-10
3.84897e-10
5.92928e-10
-2.50111e-10
5.85617e-13
7.54516e-12
1.14203e-12
2.25448e-11
2.58205e-12
1.83259e-11
5.47152e-12
8.08799e-12
9.94765e-12
-3.09883e-12
1.60058e-11
-1.41071e-11
2.3589e-11
-2.44125e-11
3.2601e-11
-3.35765e-11
4.29077e-11
-4.12346e-11
5.43268e-11
-4.70732e-11
6.66488e-11
-5.08127e-11
7.96073e-11
-5.21796e-11
9.29202e-11
-5.08753e-11
1.06113e-10
-4.65801e-11
1.18886e-10
-3.88557e-11
1.30443e-10
-2.73118e-11
1.4003e-10
-1.1303e-11
1.46448e-10
1.0152e-11
1.4831e-10
3.83844e-11
1.43766e-10
7.56019e-11
1.30197e-10
1.25445e-10
1.06006e-10
1.93957e-10
6.99335e-11
2.90295e-10
2.70526e-11
4.27778e-10
6.21848e-10
-1.86782e-12
7.54298e-13
6.79082e-12
1.82927e-12
2.14698e-11
4.04935e-12
1.61057e-11
7.90113e-12
4.23608e-12
1.34949e-11
-8.69277e-12
2.08071e-11
-2.14195e-11
2.97738e-11
-3.33794e-11
4.0306e-11
-4.41089e-11
5.22829e-11
-5.32118e-11
6.55565e-11
-6.03471e-11
7.99472e-11
-6.52036e-11
9.52378e-11
-6.74704e-11
1.11171e-10
-6.68091e-11
1.27434e-10
-6.28431e-11
1.43673e-10
-5.50946e-11
1.5937e-10
-4.30084e-11
1.73895e-10
-2.58282e-11
1.86514e-10
-2.46758e-12
1.96275e-10
2.86237e-11
2.02144e-10
6.97325e-11
2.0325e-10
1.24339e-10
1.99563e-10
1.97644e-10
1.93197e-10
2.9666e-10
1.90685e-10
4.30291e-10
6.07056e-10
2.05477e-10
9.26692e-13
5.8641e-12
2.5169e-12
1.98796e-11
5.49124e-12
1.31313e-11
1.02837e-11
-5.56522e-13
1.69728e-11
-1.53819e-11
2.55222e-11
-2.99692e-11
3.58635e-11
-4.37208e-11
4.79116e-11
-5.61573e-11
6.1564e-11
-6.68644e-11
7.67001e-11
-7.54834e-11
9.3177e-11
-8.16807e-11
1.10826e-10
-8.51197e-11
1.29451e-10
-8.54338e-11
1.48814e-10
-8.22065e-11
1.68659e-10
-7.49394e-11
1.88637e-10
-6.29874e-11
2.08372e-10
-4.55623e-11
2.27434e-10
-2.15302e-11
2.45381e-10
1.06771e-11
2.61902e-10
5.32109e-11
2.77153e-10
1.09088e-10
2.92304e-10
1.82492e-10
3.1048e-10
2.78484e-10
3.38175e-10
4.02596e-10
5.58852e-10
3.86379e-10
1.09273e-12
4.77137e-12
3.18173e-12
1.77905e-11
6.88606e-12
9.42694e-12
1.25837e-11
-6.25425e-12
2.03298e-11
-2.31282e-11
3.00727e-11
-3.97122e-11
4.17426e-11
-5.5391e-11
5.52618e-11
-6.96767e-11
7.05456e-11
-8.21484e-11
8.74999e-11
-9.2438e-11
1.06018e-10
-1.00199e-10
1.25978e-10
-1.0508e-10
1.47244e-10
-1.067e-10
1.69662e-10
-1.04625e-10
1.9306e-10
-9.8337e-11
2.17273e-10
-8.72005e-11
2.42102e-10
-7.03915e-11
2.67478e-10
-4.69065e-11
2.933e-10
-1.51447e-11
3.19827e-10
2.66833e-11
3.47863e-10
8.10526e-11
3.79227e-10
1.51129e-10
4.17319e-10
2.40392e-10
4.67854e-10
3.52061e-10
4.87664e-10
5.39042e-10
1.24761e-12
3.52378e-12
3.81744e-12
1.52207e-11
8.21743e-12
5.02692e-12
1.4774e-11
-1.28109e-11
2.3518e-11
-3.18723e-11
3.43892e-11
-5.05836e-11
4.7316e-11
-6.8318e-11
6.22304e-11
-8.45913e-11
7.90658e-11
-9.8984e-11
9.7752e-11
-1.11124e-10
1.18214e-10
-1.20662e-10
1.40374e-10
-1.2724e-10
1.64153e-10
-1.30478e-10
1.89471e-10
-1.29944e-10
2.16262e-10
-1.25128e-10
2.44476e-10
-1.15415e-10
2.7412e-10
-1.00035e-10
3.05275e-10
-7.80621e-11
3.38257e-10
-4.81265e-11
3.73663e-10
-8.72294e-12
4.12638e-10
4.20774e-11
4.57245e-10
1.06521e-10
5.10764e-10
1.86873e-10
5.77977e-10
2.84848e-10
4.0067e-10
6.64971e-10
1.39283e-12
2.13099e-12
4.41871e-12
1.21949e-11
9.47279e-12
-2.71647e-14
1.683e-11
-2.01682e-11
2.65011e-11
-4.15435e-11
3.84186e-11
-6.25012e-11
5.25125e-11
-8.24121e-11
6.87259e-11
-1.00805e-10
8.70062e-11
-1.17264e-10
1.07303e-10
-1.31422e-10
1.29573e-10
-1.42931e-10
1.53772e-10
-1.5144e-10
1.79873e-10
-1.56579e-10
2.07865e-10
-1.57936e-10
2.37767e-10
-1.5503e-10
2.69634e-10
-1.47281e-10
3.03613e-10
-1.34014e-10
3.39934e-10
-1.14384e-10
3.79145e-10
-8.7337e-11
4.22056e-10
-5.16345e-11
4.69962e-10
-5.82806e-12
5.24915e-10
5.15682e-11
5.89874e-10
1.21913e-10
6.68766e-10
2.05956e-10
3.03147e-10
7.66289e-10
1.5279e-12
6.03142e-13
4.98124e-12
8.74158e-12
1.06407e-11
-5.68659e-12
1.87342e-11
-2.82618e-11
2.9252e-11
-5.20614e-11
4.21223e-11
-7.53717e-11
5.72826e-11
-9.75726e-11
7.46815e-11
-1.18204e-10
9.42783e-11
-1.36861e-10
1.16038e-10
-1.53182e-10
1.39945e-10
-1.66838e-10
1.65986e-10
-1.7748e-10
1.94178e-10
-1.84772e-10
2.24563e-10
-1.8832e-10
2.57239e-10
-1.87706e-10
2.92324e-10
-1.82367e-10
3.30074e-10
-1.71765e-10
3.70863e-10
-1.55173e-10
4.15292e-10
-1.31766e-10
4.64289e-10
-1.00632e-10
5.19184e-10
-6.07229e-11
5.8187e-10
-1.11175e-11
6.54903e-10
4.88804e-11
7.41459e-10
1.194e-10
1.99535e-10
8.4507e-10
1.65156e-12
-1.04834e-12
5.49807e-12
4.89514e-12
1.17161e-11
-1.19046e-11
2.0473e-11
-3.70187e-11
3.17507e-11
-6.33391e-11
4.54773e-11
-8.90984e-11
6.15923e-11
-1.13688e-10
8.00489e-11
-1.36661e-10
1.00817e-10
-1.5763e-10
1.23875e-10
-1.76241e-10
1.49222e-10
-1.92185e-10
1.76887e-10
-2.05145e-10
2.06914e-10
-2.14799e-10
2.3939e-10
-2.20797e-10
2.74436e-10
-2.22752e-10
3.12284e-10
-2.20215e-10
3.53221e-10
-2.12702e-10
3.97699e-10
-1.99652e-10
4.4636e-10
-1.80426e-10
5.00112e-10
-1.54385e-10
5.60246e-10
-1.20857e-10
6.28445e-10
-7.93164e-11
7.06845e-10
-2.95199e-11
7.97976e-10
2.82699e-11
9.29773e-11
9.04534e-10
1.76414e-12
-2.81238e-12
5.97151e-12
6.87856e-13
1.26878e-11
-1.86209e-11
2.20367e-11
-4.63676e-11
3.39867e-11
-7.52891e-11
4.84671e-11
-1.03579e-10
6.54177e-11
-1.30639e-10
8.47955e-11
-1.56039e-10
1.06573e-10
-1.79407e-10
1.30751e-10
-2.00418e-10
1.57342e-10
-2.18777e-10
1.86392e-10
-2.34195e-10
2.17976e-10
-2.46382e-10
2.52208e-10
-2.5503e-10
2.89258e-10
-2.59802e-10
3.29377e-10
-2.60334e-10
3.72902e-10
-2.56227e-10
4.20303e-10
-2.47052e-10
4.72234e-10
-2.32357e-10
5.29561e-10
-2.11712e-10
5.93436e-10
-1.84732e-10
6.65317e-10
-1.51198e-10
7.46962e-10
-1.11165e-10
8.40364e-10
-6.51323e-11
-1.42192e-11
9.4756e-10
1.86458e-12
-4.67685e-12
6.39619e-12
-3.84364e-12
1.35552e-11
-2.57799e-11
2.34213e-11
-5.62336e-11
3.59543e-11
-8.78222e-11
5.10823e-11
-1.18707e-10
6.87446e-11
-1.48301e-10
8.89e-11
-1.76194e-10
1.11532e-10
-2.02039e-10
1.36646e-10
-2.25533e-10
1.64272e-10
-2.46403e-10
1.94467e-10
-2.64391e-10
2.27326e-10
-2.79241e-10
2.62984e-10
-2.90688e-10
3.01635e-10
-2.98454e-10
3.43545e-10
-3.02244e-10
3.89069e-10
-3.01751e-10
4.3868e-10
-2.96664e-10
4.93002e-10
-2.86679e-10
5.52831e-10
-2.71541e-10
6.19176e-10
-2.51078e-10
6.93268e-10
-2.2529e-10
7.76514e-10
-1.94411e-10
8.70487e-10
-1.59105e-10
-1.20456e-10
9.76724e-10
1.95376e-12
-6.63049e-12
6.77084e-12
-8.6606e-12
1.43163e-11
-3.33252e-11
2.46255e-11
-6.65428e-11
3.76517e-11
-1.00848e-10
5.33203e-11
-1.34376e-10
7.15693e-11
-1.6655e-10
9.23629e-11
-1.96988e-10
1.15689e-10
-2.25365e-10
1.41558e-10
-2.51402e-10
1.70008e-10
-2.74853e-10
2.01107e-10
-2.9549e-10
2.34959e-10
-3.13093e-10
2.71713e-10
-3.27442e-10
3.11573e-10
-3.38313e-10
3.54808e-10
-3.4548e-10
4.01774e-10
-3.48717e-10
4.52925e-10
-3.47814e-10
5.08837e-10
-3.42591e-10
5.70226e-10
-3.3293e-10
6.37961e-10
-3.18812e-10
7.13055e-10
-3.00384e-10
7.96659e-10
-2.78015e-10
8.89948e-10
-2.52394e-10
-2.24583e-10
9.94074e-10
2.0283e-12
-8.65864e-12
7.0956e-12
-1.37278e-11
1.49699e-11
-4.11994e-11
2.56499e-11
-7.72227e-11
3.90803e-11
-1.14279e-10
5.51832e-11
-1.50479e-10
7.38984e-11
-1.85265e-10
9.51918e-11
-2.18282e-10
1.19053e-10
-2.49227e-10
1.45497e-10
-2.77846e-10
1.74565e-10
-3.03921e-10
2.0633e-10
-3.27255e-10
2.40902e-10
-3.47665e-10
2.78432e-10
-3.64972e-10
3.19124e-10
-3.79006e-10
3.63244e-10
-3.89599e-10
4.11129e-10
-3.96603e-10
4.63205e-10
-3.9989e-10
5.19992e-10
-3.99378e-10
5.82118e-10
-3.95056e-10
6.50321e-10
-3.87015e-10
7.25434e-10
-3.75497e-10
8.08362e-10
-3.60943e-10
9.00015e-10
-3.44048e-10
-3.25804e-10
1.00124e-09
2.09052e-12
-1.0749e-11
7.37028e-12
-1.90074e-11
1.55174e-11
-4.93464e-11
2.64971e-11
-8.82023e-11
4.02442e-11
-1.28026e-10
5.66793e-11
-1.66914e-10
7.57429e-11
-2.04329e-10
9.7401e-11
-2.3994e-10
1.21644e-10
-2.7347e-10
1.48486e-10
-3.04689e-10
1.77972e-10
-3.33407e-10
2.10174e-10
-3.59458e-10
2.45202e-10
-3.82692e-10
2.83203e-10
-4.02974e-10
3.24375e-10
-4.20177e-10
3.68968e-10
-4.34192e-10
4.17295e-10
-4.44931e-10
4.69742e-10
-4.52337e-10
5.26769e-10
-4.56405e-10
5.88917e-10
-4.57204e-10
6.56803e-10
-4.54901e-10
7.31105e-10
-4.49799e-10
8.12532e-10
-4.42371e-10
9.0178e-10
-4.33296e-10
-4.23487e-10
9.99463e-10
2.13942e-12
-1.28882e-11
7.59357e-12
-2.44613e-11
1.59604e-11
-5.77131e-11
2.71706e-11
-9.94125e-11
4.11505e-11
-1.42006e-10
5.78197e-11
-1.83583e-10
7.71183e-11
-2.23628e-10
9.90107e-11
-2.61833e-10
1.23486e-10
-2.97946e-10
1.50559e-10
-3.31763e-10
1.80271e-10
-3.63119e-10
2.12693e-10
-3.91879e-10
2.47927e-10
-4.17927e-10
2.86114e-10
-4.41161e-10
3.27438e-10
-4.61501e-10
3.72127e-10
-4.78882e-10
4.20465e-10
-4.93268e-10
4.7279e-10
-5.04663e-10
5.29503e-10
-5.13118e-10
5.91061e-10
-5.18762e-10
6.5797e-10
-5.21811e-10
7.30775e-10
-5.22603e-10
8.10025e-10
-5.21621e-10
8.96243e-10
-5.19513e-10
-5.1711e-10
9.89865e-10
2.17515e-12
-1.50632e-11
7.76542e-12
-3.00514e-11
1.63009e-11
-6.62484e-11
2.76759e-11
-1.10787e-10
4.18085e-11
-1.56138e-10
5.86182e-11
-2.00393e-10
7.80431e-11
-2.43053e-10
1.00046e-10
-2.83835e-10
1.24613e-10
-3.22513e-10
1.51757e-10
-3.58907e-10
1.81515e-10
-3.92877e-10
2.13951e-10
-4.24315e-10
2.49159e-10
-4.53135e-10
2.87269e-10
-4.79271e-10
3.28444e-10
-5.02676e-10
3.72889e-10
-5.23327e-10
4.20852e-10
-5.41232e-10
4.72626e-10
-5.56437e-10
5.28549e-10
-5.69041e-10
5.88997e-10
-5.79211e-10
6.54383e-10
-5.87196e-10
7.2513e-10
-5.93351e-10
8.0166e-10
-5.98151e-10
8.84351e-10
-6.02204e-10
-6.06264e-10
9.73505e-10
2.19832e-12
-1.72613e-11
7.89211e-12
-3.5745e-11
1.65442e-11
-7.49003e-11
2.80194e-11
-1.22262e-10
4.22291e-11
-1.70348e-10
5.90902e-11
-2.17254e-10
7.85388e-11
-2.62502e-10
1.00535e-10
-3.05831e-10
1.25062e-10
-3.4704e-10
1.52127e-10
-3.85972e-10
1.81762e-10
-4.22512e-10
2.14023e-10
-4.56576e-10
2.48993e-10
-4.88105e-10
2.86784e-10
-5.17062e-10
3.27539e-10
-5.43432e-10
3.71437e-10
-5.67224e-10
4.18687e-10
-5.88482e-10
4.69536e-10
-6.07286e-10
5.24262e-10
-6.23767e-10
5.83169e-10
-6.38118e-10
6.46581e-10
-6.50608e-10
7.14822e-10
-6.61592e-10
7.882e-10
-6.71529e-10
8.66981e-10
-6.80985e-10
-6.90639e-10
9.51356e-10
2.20919e-12
-1.94703e-11
7.97199e-12
-4.15076e-11
1.6693e-11
-8.36212e-11
2.82088e-11
-1.33778e-10
4.24239e-11
-1.84563e-10
5.9253e-11
-2.34083e-10
7.86293e-11
-2.81878e-10
1.00509e-10
-3.27712e-10
1.24873e-10
-3.71404e-10
1.51722e-10
-4.12821e-10
1.81079e-10
-4.5187e-10
2.12992e-10
-4.88489e-10
2.47528e-10
-5.22642e-10
2.84784e-10
-5.54318e-10
3.24879e-10
-5.83527e-10
3.67962e-10
-6.10307e-10
4.14206e-10
-6.34726e-10
4.63812e-10
-6.56892e-10
5.17001e-10
-6.76956e-10
5.74011e-10
-6.95128e-10
6.35086e-10
-7.11683e-10
7.00465e-10
-7.26971e-10
7.70361e-10
-7.41425e-10
8.44944e-10
-7.55568e-10
-7.70008e-10
9.24314e-10
2.20815e-12
-2.16782e-11
8.00736e-12
-4.73065e-11
1.6752e-11
-9.23656e-11
2.8252e-11
-1.45278e-10
4.24059e-11
-1.98717e-10
5.91252e-11
-2.50803e-10
7.83403e-11
-3.01093e-10
1.00004e-10
-3.49376e-10
1.24092e-10
-3.95492e-10
1.50598e-10
-4.39328e-10
1.79537e-10
-4.80809e-10
2.10944e-10
-5.19896e-10
2.44873e-10
-5.56572e-10
2.81401e-10
-5.90846e-10
3.20625e-10
-6.22751e-10
3.62662e-10
-6.52344e-10
4.07651e-10
-6.79715e-10
4.55746e-10
-7.04988e-10
5.07119e-10
-7.28329e-10
5.61944e-10
-7.49954e-10
6.20398e-10
-7.70137e-10
6.82642e-10
-7.89215e-10
7.4881e-10
-8.07593e-10
8.1899e-10
-8.25748e-10
-8.44225e-10
8.93206e-10
2.19578e-12
-2.38737e-11
8.0007e-12
-5.31112e-11
1.67259e-11
-1.01091e-10
2.8158e-11
-1.5671e-10
4.21888e-11
-2.12748e-10
5.87267e-11
-2.67341e-10
7.76993e-11
-3.20066e-10
9.90553e-11
-3.70732e-10
1.22764e-10
-4.19201e-10
1.48813e-10
-4.65377e-10
1.77208e-10
-5.09204e-10
2.0797e-10
-5.50658e-10
2.4114e-10
-5.89741e-10
2.76773e-10
-6.26479e-10
3.14943e-10
-6.60921e-10
3.55738e-10
-6.9314e-10
3.99262e-10
-7.23239e-10
4.45629e-10
-7.51355e-10
4.9496e-10
-7.77659e-10
5.47377e-10
-8.0237e-10
6.02992e-10
-8.25752e-10
6.61902e-10
-8.48125e-10
7.24172e-10
-8.69863e-10
7.8982e-10
-8.91397e-10
-9.1321e-10
8.58805e-10
2.17281e-12
-2.60463e-11
7.95491e-12
-5.8893e-11
1.66206e-11
-1.09756e-10
2.79364e-11
-1.68026e-10
4.17873e-11
-2.26599e-10
5.80787e-11
-2.83632e-10
7.67349e-11
-3.38722e-10
9.77007e-11
-3.91698e-10
1.20939e-10
-4.42439e-10
1.4643e-10
-4.90868e-10
1.74169e-10
-5.36943e-10
2.04165e-10
-5.80655e-10
2.36442e-10
-6.22019e-10
2.71037e-10
-6.61074e-10
3.08e-10
-6.97883e-10
3.47391e-10
-7.32531e-10
3.89281e-10
-7.65129e-10
4.33745e-10
-7.95819e-10
4.80861e-10
-8.24775e-10
5.307e-10
-8.52209e-10
5.83322e-10
-8.78374e-10
6.38765e-10
-9.03568e-10
6.97034e-10
-9.28132e-10
7.58089e-10
-9.52452e-10
-9.76954e-10
8.21833e-10
2.14026e-12
-2.81863e-11
7.87254e-12
-6.46251e-11
1.64424e-11
-1.18326e-10
2.75975e-11
-1.79181e-10
4.12167e-11
-2.40218e-10
5.72029e-11
-2.99618e-10
7.5477e-11
-3.56996e-10
9.59793e-11
-4.122e-10
1.18667e-10
-4.65127e-10
1.43512e-10
-5.15713e-10
1.70498e-10
-5.6393e-10
1.99623e-10
-6.0978e-10
2.30896e-10
-6.53291e-10
2.64333e-10
-6.94512e-10
2.99962e-10
-7.33513e-10
3.37819e-10
-7.70388e-10
3.77941e-10
-8.05252e-10
4.2037e-10
-8.38248e-10
4.65142e-10
-8.69548e-10
5.12287e-10
-8.99354e-10
5.61816e-10
-9.27903e-10
6.13717e-10
-9.5547e-10
6.67945e-10
-9.8236e-10
7.24409e-10
-1.00892e-09
-1.03551e-09
7.82963e-10
2.09877e-12
-3.02848e-11
7.75702e-12
-7.0283e-11
1.61974e-11
-1.26766e-10
2.71518e-11
-1.90135e-10
4.04933e-11
-2.53559e-10
5.61221e-11
-3.15247e-10
7.39561e-11
-3.7483e-10
9.39311e-11
-4.32175e-10
1.15998e-10
-4.87194e-10
1.4012e-10
-5.39836e-10
1.66273e-10
-5.90083e-10
1.9444e-10
-6.37947e-10
2.24615e-10
-6.83466e-10
2.56797e-10
-7.26694e-10
2.90994e-10
-7.6771e-10
3.27214e-10
-8.06608e-10
3.65469e-10
-8.43507e-10
4.05768e-10
-8.78547e-10
4.48112e-10
-9.11892e-10
4.92491e-10
-9.43733e-10
5.38877e-10
-9.7429e-10
5.87215e-10
-1.00381e-09
6.37416e-10
-1.03256e-09
6.89346e-10
-1.06085e-09
-1.08898e-09
7.4282e-10
2.04943e-12
-3.23339e-11
7.61134e-12
-7.58446e-11
1.58924e-11
-1.35047e-10
2.66104e-11
-2.00853e-10
3.96333e-11
-2.66582e-10
5.48593e-11
-3.30473e-10
7.22032e-11
-3.92174e-10
9.15962e-11
-4.51568e-10
1.12983e-10
-5.08581e-10
1.3632e-10
-5.63172e-10
1.61571e-10
-6.15334e-10
1.88709e-10
-6.65086e-10
2.17713e-10
-7.1247e-10
2.48566e-10
-7.57547e-10
2.81254e-10
-8.00398e-10
3.15765e-10
-8.41119e-10
3.52084e-10
-8.79826e-10
3.90193e-10
-9.16655e-10
4.30061e-10
-9.5176e-10
4.71645e-10
-9.85318e-10
5.14882e-10
-1.01753e-09
5.59681e-10
-1.04861e-09
6.05917e-10
-1.0788e-09
6.53421e-10
-1.10835e-09
-1.13754e-09
7.01976e-10
1.99312e-12
-3.43267e-11
7.43889e-12
-8.12901e-11
1.55341e-11
-1.43142e-10
2.59843e-11
-2.11303e-10
3.86537e-11
-2.79251e-10
5.3438e-11
-3.45257e-10
7.02495e-11
-4.08986e-10
8.9015e-11
-4.70334e-10
1.09673e-10
-5.2924e-10
1.32173e-10
-5.85672e-10
1.56469e-10
-6.3963e-10
1.82524e-10
-6.9114e-10
2.10301e-10
-7.40247e-10
2.39769e-10
-7.87015e-10
2.70896e-10
-8.31526e-10
3.0365e-10
-8.73873e-10
3.37993e-10
-9.1417e-10
3.73882e-10
-9.52543e-10
4.1126e-10
-9.89138e-10
4.50056e-10
-1.02411e-09
4.90177e-10
-1.05765e-09
5.31501e-10
-1.08993e-09
5.73876e-10
-1.12117e-09
6.17105e-10
-1.15158e-09
-1.18138e-09
6.60945e-10
1.93082e-12
-3.62573e-11
7.24287e-12
-8.66018e-11
1.51291e-11
-1.51028e-10
2.5285e-11
-2.21458e-10
3.7571e-11
-2.91537e-10
5.18816e-11
-3.59568e-10
6.81262e-11
-4.25231e-10
8.62277e-11
-4.88436e-10
1.06119e-10
-5.49132e-10
1.27742e-10
-6.07295e-10
1.51044e-10
-6.62932e-10
1.75974e-10
-7.1607e-10
2.02485e-10
-7.66759e-10
2.30532e-10
-8.15063e-10
2.60067e-10
-8.6106e-10
2.91039e-10
-9.04845e-10
3.23391e-10
-9.46522e-10
3.57058e-10
-9.86211e-10
3.91962e-10
-1.02404e-09
4.28007e-10