/*--------------------------------*- C++ -*----------------------------------*\
  =========                 |
  \\      /  F ield         | OpenFOAM: The Open Source CFD Toolbox
   \\    /   O peration     | Website:  https://openfoam.org
    \\  /    A nd           | Version:  13
     \\/     M anipulation  |
\*---------------------------------------------------------------------------*/
FoamFile
{
    format      ascii;
    class       surfaceScalarField;
    location    "18";
    object      phi;
}
// * * * * * * * * * * * * * * * * * * * * * * * * * * * * * * * * * * * * * //

dimensions      [0 3 -1 0 0 0 0];

internalField   nonuniform List<scalar> 
12590
(
-7.12884e-08
6.61756e-08
-1.20804e-07
4.71012e-08
-8.14332e-08
-4.48569e-08
5.01502e-08
-1.33425e-07
2.2406e-07
-1.77297e-07
4.03769e-07
-1.80493e-07
5.63803e-07
-1.62096e-07
6.95767e-07
-1.32283e-07
7.9365e-07
-9.95021e-08
8.60406e-07
-6.69649e-08
8.94948e-07
-3.59362e-08
9.0106e-07
-6.60537e-09
8.77758e-07
2.20654e-08
8.24998e-07
5.15166e-08
7.42912e-07
8.09257e-08
6.31529e-07
1.0919e-07
4.94752e-07
1.35351e-07
3.36714e-07
1.55719e-07
1.72411e-07
1.62537e-07
2.23322e-08
1.47006e-07
-8.50936e-08
1.03896e-07
-1.39156e-07
4.9476e-08
-1.38252e-07
-4.98965e-09
-8.70653e-08
-5.70364e-08
-8.85495e-08
-2.80407e-08
8.92233e-08
1.55611e-08
-1.3027e-10
1.68386e-07
-1.99877e-07
3.54707e-07
-3.20778e-07
5.3143e-07
-3.5516e-07
6.86412e-07
-3.36072e-07
8.14861e-07
-2.91402e-07
9.18559e-07
-2.3638e-07
9.97172e-07
-1.78813e-07
1.05168e-06
-1.21903e-07
1.08137e-06
-6.64085e-08
1.08556e-06
-1.1483e-08
1.06392e-06
4.28017e-08
1.01966e-06
9.46616e-08
9.55467e-07
1.44039e-07
8.71639e-07
1.91544e-07
7.69369e-07
2.3635e-07
6.47665e-07
2.75975e-07
5.04126e-07
3.04679e-07
3.3893e-07
3.10711e-07
1.62895e-07
2.78283e-07
1.00899e-08
1.99787e-07
-7.60508e-08
7.46e-08
-7.40349e-08
-6.45653e-08
-1.64e-07
3.16976e-08
5.44701e-08
1.87782e-07
-1.57455e-07
3.85545e-07
-3.98603e-07
5.67134e-07
-5.02801e-07
7.16117e-07
-5.04693e-07
8.36259e-07
-4.56471e-07
9.32437e-07
-3.87918e-07
1.00802e-06
-3.12119e-07
1.06288e-06
-2.34112e-07
1.09637e-06
-1.5571e-07
1.107e-06
-7.7678e-08
1.09522e-06
-4.71467e-10
1.06265e-06
7.44288e-08
1.01068e-06
1.45473e-07
9.42531e-07
2.11056e-07
8.62406e-07
2.70291e-07
7.74223e-07
3.233e-07
6.79192e-07
3.69553e-07
5.76219e-07
4.06256e-07
4.59907e-07
4.25611e-07
3.23827e-07
4.12987e-07
1.7235e-07
3.49247e-07
2.81716e-08
2.169e-07
-4.68757e-08
4.41891e-09
-2.11416e-07
9.84281e-08
-4.56581e-08
3.22982e-07
-3.8258e-07
5.28202e-07
-6.04242e-07
6.83209e-07
-6.57925e-07
8.0205e-07
-6.23716e-07
8.99731e-07
-5.54078e-07
9.81704e-07
-4.70062e-07
1.04779e-06
-3.78236e-07
1.09417e-06
-2.80774e-07
1.11735e-06
-1.79337e-07
1.11493e-06
-7.60173e-08
1.08674e-06
2.67585e-08
1.03559e-06
1.24424e-07
9.64863e-07
2.14864e-07
8.79344e-07
2.95294e-07
7.84787e-07
3.6336e-07
6.87994e-07
4.18822e-07
5.93145e-07
4.62895e-07
5.01707e-07
4.96293e-07
4.10059e-07
5.15908e-07
3.10493e-07
5.11437e-07
1.97084e-07
4.62404e-07
7.07475e-08
3.38972e-07
-2.26086e-08
9.72183e-08
-2.34223e-07
1.74138e-07
-2.20573e-07
4.14344e-07
-6.2285e-07
5.91138e-07
-7.81171e-07
7.19097e-07
-7.85704e-07
8.24986e-07
-7.29592e-07
9.20227e-07
-6.49176e-07
1.00381e-06
-5.53709e-07
1.07048e-06
-4.45002e-07
1.11349e-06
-3.24307e-07
1.12739e-06
-1.93908e-07
1.10921e-06
-5.88911e-08
1.06026e-06
7.43712e-08
9.85014e-07
1.98264e-07
8.89768e-07
3.08546e-07
7.82259e-07
4.01327e-07
6.69073e-07
4.74982e-07
5.57468e-07
5.29079e-07
4.53147e-07
5.6569e-07
3.59718e-07
5.88178e-07
2.76487e-07
5.97763e-07
1.98519e-07
5.88252e-07
1.20137e-07
5.38569e-07
4.45505e-08
4.15634e-07
-4.60952e-09
1.44695e-07
-2.38358e-07
2.30115e-07
-4.50752e-07
4.41066e-07
-8.33742e-07
5.86212e-07
-9.26149e-07
7.03048e-07
-9.02229e-07
8.11455e-07
-8.37835e-07
9.12974e-07
-7.50476e-07
1.00049e-06
-6.41445e-07
1.06605e-06
-5.1084e-07
1.10211e-06
-3.61095e-07
1.10435e-06
-1.9721e-07
1.06718e-06
-2.30997e-08
9.92461e-07
1.47533e-07
8.89293e-07
2.99852e-07
7.6761e-07
4.2855e-07
6.36799e-07
5.3054e-07
5.05405e-07
6.04732e-07
3.81172e-07
6.51917e-07
2.69514e-07
6.75667e-07
1.74703e-07
6.81316e-07
9.79738e-08
6.72873e-07
3.8377e-08
6.46397e-07
-3.46734e-09
5.80709e-07
-2.23732e-08
4.31132e-07
1.77546e-08
1.05763e-07
-2.20164e-07
2.36976e-07
-6.87499e-07
4.09792e-07
-1.00614e-06
5.36089e-07
-1.05206e-06
6.50655e-07
-1.01624e-06
7.6211e-07
-9.49e-07
8.65309e-07
-8.53462e-07
9.49689e-07
-7.25981e-07
1.00478e-06
-5.66287e-07
1.02135e-06
-3.78635e-07
9.9806e-07
-1.74848e-07
9.34096e-07
3.90131e-08
8.34283e-07
2.45882e-07
7.0618e-07
4.26183e-07
5.63909e-07
5.69075e-07
4.1874e-07
6.7395e-07
2.79019e-07
7.42657e-07
1.52325e-07
7.77197e-07
4.26841e-08
7.83309e-07
-4.65026e-08
7.68855e-07
-1.14149e-07
7.38476e-07
-1.57098e-07
6.88289e-07
-1.67306e-07
5.88263e-07
-9.81371e-08
3.62019e-07
4.34791e-08
-3.56188e-08
-1.76214e-07
2.06169e-07
-8.93021e-07
3.44884e-07
-1.14424e-06
4.52604e-07
-1.15913e-06
5.56326e-07
-1.11923e-06
6.57002e-07
-1.04924e-06
7.46143e-07
-9.41997e-07
8.10772e-07
-7.90838e-07
8.38896e-07
-5.94476e-07
8.17999e-07
-3.58558e-07
7.533e-07
-1.11814e-07
6.61818e-07
1.28621e-07
5.41095e-07
3.64214e-07
3.99594e-07
5.65607e-07
2.53679e-07
7.12555e-07
1.14351e-07
8.11255e-07
-1.33335e-08
8.68213e-07
-1.24598e-07
8.87042e-07
-2.18745e-07
8.75707e-07
-2.94706e-07
8.43271e-07
-3.49262e-07
7.91581e-07
-3.68539e-07
7.05937e-07
-3.06669e-07
5.25339e-07
-8.52987e-08
1.39162e-07
7.37432e-08
-1.94169e-07
-1.01235e-07
1.59458e-07
-1.05184e-06
2.56638e-07
-1.24081e-06
3.32469e-07
-1.23412e-06
4.0533e-07
-1.19134e-06
4.70765e-07
-1.11371e-06
5.16263e-07
-9.87189e-07
5.28308e-07
-8.02306e-07
4.95343e-07
-5.62494e-07
4.11715e-07
-2.75987e-07
2.96355e-07
-4.98617e-12
1.85241e-07
2.3591e-07
7.34543e-08
4.72387e-07
-3.99045e-08
6.75778e-07
-1.47032e-07
8.16804e-07
-2.46934e-07
9.0913e-07
-3.40399e-07
9.59904e-07
-4.24117e-07
9.69667e-07
-4.96398e-07
9.4649e-07
-5.51909e-07
8.97629e-07
-5.81138e-07
8.19179e-07
-5.39965e-07
6.63593e-07
-3.37172e-07
3.20897e-07
-2.69721e-08
-1.72796e-07
5.89302e-08
-2.7779e-07
-4.19463e-08
1.04048e-07
-1.15549e-06
1.44865e-07
-1.28102e-06
1.72935e-07
-1.26149e-06
1.95047e-07
-1.21261e-06
2.00925e-07
-1.11887e-06
1.74552e-07
-9.6009e-07
9.61717e-08
-7.2455e-07
-3.59879e-08
-4.31229e-07
-1.74856e-07
-1.41599e-07
-2.52567e-07
7.26335e-08
-3.1924e-07
2.98521e-07
-3.88075e-07
5.38293e-07
-4.62375e-07
7.47756e-07
-5.36243e-07
8.88677e-07
-6.04301e-07
9.75702e-07
-6.64856e-07
1.01913e-06
-7.16394e-07
1.02024e-06
-7.62207e-07
9.9119e-07
-7.89763e-07
9.24151e-07
-7.65607e-07
7.93897e-07
-6.06238e-07
5.03024e-07
-2.60981e-07
-2.67122e-08
-4.51508e-08
-3.88263e-07
8.60975e-10
-3.2413e-07
-3.98412e-08
3.5865e-08
-1.19138e-06
1.39198e-08
-1.25879e-06
-1.45213e-08
-1.23277e-06
-5.25692e-08
-1.17374e-06
-1.09486e-07
-1.06165e-06
-1.92984e-07
-8.76165e-07
-3.0505e-07
-6.13273e-07
-4.29052e-07
-3.08889e-07
-5.33241e-07
-4.03009e-08
-6.40449e-07
1.7696e-07
-7.31141e-07
3.86826e-07
-7.96294e-07
6.01528e-07
-8.4396e-07
7.93797e-07
-8.85508e-07
9.28782e-07
-9.22013e-07
1.0111e-06
-9.52625e-07
1.04865e-06
-9.77749e-07
1.04455e-06
-9.95182e-07
1.00765e-06
-9.78994e-07
9.07177e-07
-8.63823e-07
6.77834e-07
-5.69019e-07
2.0679e-07
-2.63881e-07
-3.32875e-07
-1.8178e-07
-4.72517e-07
-9.70702e-08
-4.07182e-07
-1.3752e-07
-4.02582e-08
-1.15164e-06
-1.2084e-07
-1.17814e-06
-2.07391e-07
-1.14611e-06
-3.02722e-07
-1.07796e-06
-4.10371e-07
-9.53748e-07
-5.31899e-07
-7.54558e-07
-6.6442e-07
-4.81436e-07
-7.95873e-07
-1.78912e-07
-9.144e-07
7.61926e-08
-1.0173e-06
2.78065e-07
-1.09457e-06
4.62443e-07
-1.14163e-06
6.47185e-07
-1.16367e-06
8.14571e-07
-1.17779e-06
9.41703e-07
-1.18872e-06
1.02103e-06
-1.19521e-06
1.0541e-06
-1.19549e-06
1.044e-06
-1.1728e-06
9.83971e-07
-1.08345e-06
8.17073e-07
-8.46899e-07
4.40094e-07
-4.85169e-07
-1.56284e-07
-3.33291e-07
-4.87413e-07
-2.63554e-07
-5.41866e-07
-1.56611e-07
-5.15914e-07
-2.93745e-07
-1.16406e-07
-1.03585e-06
-2.52574e-07
-1.04228e-06
-3.95786e-07
-1.00283e-06
-5.42707e-07
-9.30732e-07
-6.90542e-07
-8.05742e-07
-8.35174e-07
-6.099e-07
-9.7211e-07
-3.45191e-07
-1.09799e-06
-5.42398e-08
-1.21385e-06
1.90415e-07
-1.31075e-06
3.73441e-07
-1.38036e-06
5.30598e-07
-1.41523e-06
6.80736e-07
-1.4209e-06
8.18956e-07
-1.41305e-06
9.32555e-07
-1.40037e-06
1.00718e-06
-1.38092e-06
1.03344e-06
-1.34417e-06
1.00618e-06
-1.25856e-06
8.97284e-07
-1.06191e-06
6.19234e-07
-7.07955e-07
8.46057e-08
-4.37522e-07
-4.2923e-07
-3.71011e-07
-5.55464e-07
-2.9164e-07
-6.24333e-07
-1.77377e-07
-6.29351e-07
-4.72059e-07
-1.82792e-07
-8.54357e-07
-3.77235e-07
-8.48106e-07
-5.75128e-07
-8.0504e-07
-7.66885e-07
-7.38689e-07
-9.44965e-07
-6.27552e-07
-1.1012e-06
-4.53818e-07
-1.22993e-06
-2.17072e-07
-1.33485e-06
4.94113e-08
-1.42928e-06
2.83286e-07
-1.516e-06
4.58661e-07
-1.58347e-06
5.9651e-07
-1.61781e-06
7.1367e-07
-1.61707e-06
8.16708e-07
-1.59037e-06
9.04436e-07
-1.54872e-06
9.64092e-07
-1.49125e-06
9.74656e-07
-1.39756e-06
9.11363e-07
-1.22095e-06
7.19425e-07
-9.04096e-07
3.01057e-07
-5.44668e-07
-2.77251e-07
-4.24648e-07
-5.51635e-07
-3.57305e-07
-6.25865e-07
-2.69243e-07
-7.12356e-07
-1.62305e-07
-7.3889e-07
-6.35124e-07
-2.3904e-07
-6.16066e-07
-4.97526e-07
-5.90019e-07
-7.47888e-07
-5.54565e-07
-9.79065e-07
-5.07245e-07
-1.18191e-06
-4.24594e-07
-1.34664e-06
-2.8925e-07
-1.46669e-06
-9.776e-08
-1.54649e-06
1.27961e-07
-1.60627e-06
3.4169e-07
-1.66451e-06
5.1526e-07
-1.71772e-06
6.48321e-07
-1.75132e-06
7.45679e-07
-1.75167e-06
8.15769e-07
-1.71241e-06
8.63642e-07
-1.63488e-06
8.85453e-07
-1.51683e-06
8.55634e-07
-1.33256e-06
7.26276e-07
-1.03614e-06
4.22491e-07
-6.53936e-07
-8.27364e-08
-4.38959e-07
-4.93789e-07
-3.86664e-07
-6.06065e-07
-3.09654e-07
-7.04465e-07
-2.23274e-07
-8.01984e-07
-1.27368e-07
-8.36222e-07
-7.63404e-07
-3.04061e-07
-3.13919e-07
-6.25637e-07
-2.68882e-07
-9.21912e-07
-2.58371e-07
-1.18577e-06
-2.43179e-07
-1.41052e-06
-2.00259e-07
-1.58711e-06
-1.12602e-07
-1.70884e-06
2.29498e-08
-1.77624e-06
1.94871e-07
-1.80711e-06
3.70791e-07
-1.82193e-06
5.29365e-07
-1.83159e-06
6.56188e-07
-1.83298e-06
7.46277e-07
-1.81352e-06
7.94979e-07
-1.75235e-06
8.01367e-07
-1.6317e-06
7.64456e-07
-1.43462e-06
6.57756e-07
-1.13698e-06
4.29144e-07
-7.5612e-07
4.14075e-08
-4.64725e-07
-3.74363e-07
-3.72894e-07
-5.85875e-07
-2.9641e-07
-6.8445e-07
-2.13798e-07
-7.88514e-07
-1.45116e-07
-8.7178e-07
-7.53101e-08
-9.07642e-07
-8.37749e-07
-3.95409e-07
8.00043e-08
-7.67086e-07
1.01949e-07
-1.09356e-06
6.71458e-08
-1.38369e-06
4.55246e-08
-1.63495e-06
5.1714e-08
-1.84153e-06
9.19418e-08
-1.98834e-06
1.70335e-07
-2.07436e-06
2.78145e-07
-2.10178e-06
3.98693e-07
-2.08396e-06
5.08963e-07
-2.03322e-06
6.05318e-07
-1.96008e-06
6.71522e-07
-1.85802e-06
6.91673e-07
-1.71365e-06
6.57059e-07
-1.50736e-06
5.56249e-07
-1.21377e-06
3.65189e-07
-8.48506e-07
6.38332e-08
-5.1872e-07
-2.88284e-07
-3.42334e-07
-5.48358e-07
-2.39522e-07
-6.90882e-07
-1.34335e-07
-7.88249e-07
-5.76894e-08
-8.65845e-07
-1.241e-08
-9.1808e-07
7.67192e-09
-9.24208e-07
-8.32451e-07
-4.60625e-07
5.37726e-07
-8.45018e-07
4.8398e-07
-1.18498e-06
4.04949e-07
-1.48702e-06
3.47811e-07
-1.75411e-06
3.14587e-07
-1.97564e-06
3.13563e-07
-2.14797e-06
3.38827e-07
-2.25579e-06
3.85915e-07
-2.30683e-06
4.4628e-07
-2.30767e-06
5.09317e-07
-2.25155e-06
5.46724e-07
-2.12259e-06
5.41507e-07
-1.92131e-06
4.89624e-07
-1.65087e-06
3.83461e-07
-1.30797e-06
2.13965e-07
-9.17781e-07
-2.72393e-08
-5.50055e-07
-3.04036e-07
-2.87057e-07
-5.49172e-07
-1.22967e-07
-7.15011e-07
1.60144e-09
-8.13399e-07
9.04822e-08
-8.78242e-07
1.36671e-07
-9.13892e-07
1.42413e-07
-9.2029e-07
9.6714e-08
-8.8733e-07
-7.35575e-07
-4.11554e-07
9.48101e-07
-7.56883e-07
8.2763e-07
-1.06719e-06
7.14002e-07
-1.34678e-06
6.22612e-07
-1.59235e-06
5.59437e-07
-1.80457e-06
5.21246e-07
-1.97409e-06
5.05687e-07
-2.09547e-06
5.03481e-07
-2.15647e-06
5.05159e-07
-2.14348e-06
4.93198e-07
-2.04916e-06
4.51033e-07
-1.86937e-06
3.59019e-07
-1.5981e-06
2.15585e-07
-1.24257e-06
2.69541e-08
-8.40916e-07
-1.92152e-07
-4.46098e-07
-4.23188e-07
-1.28005e-07
-6.23283e-07
8.76571e-08
-7.66972e-07
2.32638e-07
-8.60214e-07
3.32191e-07
-9.15566e-07
3.88935e-07
-9.38173e-07
3.99486e-07
-9.25623e-07
3.45444e-07
-8.78239e-07
2.28911e-07
-7.6977e-07
-5.12822e-07
-2.87568e-07
1.23332e-06
-5.67976e-07
1.10614e-06
-8.18309e-07
9.61495e-07
-1.03746e-06
8.41273e-07
-1.22776e-06
7.44339e-07
-1.38335e-06
6.72989e-07
-1.49901e-06
6.17392e-07
-1.5659e-06
5.66449e-07
-1.57044e-06
5.05958e-07
-1.49887e-06
4.19006e-07
-1.3467e-06
2.95086e-07
-1.10898e-06
1.20548e-07
-7.95086e-07
-1.01885e-07
-4.44966e-07
-3.28487e-07
-1.00186e-07
-5.39948e-07
1.87693e-07
-7.14539e-07
3.90579e-07
-8.28348e-07
5.30937e-07
-9.09238e-07
6.3529e-07
-9.67335e-07
7.08355e-07
-9.91653e-07
7.46551e-07
-9.80079e-07
7.41338e-07
-9.28198e-07
6.79842e-07
-8.16894e-07
5.02279e-07
-6.03162e-07
-9.66564e-09
-1.33922e-07
1.36754e-06
-3.19952e-07
1.29192e-06
-4.84462e-07
1.12574e-06
-6.28733e-07
9.81129e-07
-7.43411e-07
8.57769e-07
-8.25766e-07
7.51014e-07
-8.68023e-07
6.55102e-07
-8.61937e-07
5.55813e-07
-7.96851e-07
4.37246e-07
-6.66365e-07
2.84836e-07
-4.97804e-07
1.26485e-07
-2.90273e-07
-9.35511e-08
-4.66218e-08
-3.48943e-07
1.91906e-07
-5.70386e-07
3.75497e-07
-7.26268e-07
5.01257e-07
-8.42243e-07
6.01951e-07
-9.30938e-07
6.83665e-07
-9.93001e-07
7.42689e-07
-1.02855e-06
7.80113e-07
-1.03175e-06
8.00789e-07
-1.00367e-06
8.13445e-07
-9.42754e-07
8.34539e-07
-8.43881e-07
9.35015e-07
-7.01426e-07
-5.26703e-07
1.45107e-06
-2.7967e-08
1.39606e-06
-1.1868e-07
1.38308e-06
-2.17145e-07
1.22321e-06
-2.98341e-07
1.06401e-06
-3.57889e-07
9.13128e-07
-3.83837e-07
7.7449e-07
-3.71879e-07
6.39108e-07
-3.1645e-07
4.97118e-07
-2.20456e-07
3.38245e-07
-9.23765e-08
1.55608e-07
9.84281e-08
-7.16099e-08
3.55214e-07
-3.47247e-07
5.63822e-07
-5.59475e-07
7.04217e-07
-7.1208e-07
8.15353e-07
-8.38535e-07
9.10897e-07
-9.39046e-07
9.90414e-07
-1.01172e-06
1.05127e-06
-1.05521e-06
1.09118e-06
-1.06983e-06
1.11391e-06
-1.05554e-06
1.12835e-06
-1.01926e-06
1.14033e-06
-9.56362e-07
1.16811e-06
-8.69571e-07
1.23594e-06
-7.705e-07
-6.81124e-07
1.392e-06
5.18667e-08
1.34656e-06
4.54482e-08
1.39122e-06
8.34244e-09
1.26246e-06
-2.34731e-08
1.09415e-06
-3.37208e-08
9.24759e-07
-1.4441e-08
7.53658e-07
4.66279e-08
5.76831e-07
1.56229e-07
3.86814e-07
3.13983e-07
1.80461e-07
5.12361e-07
-4.26199e-08
7.21468e-07
-2.76714e-07
8.73534e-07
-5.0247e-07
9.95024e-07
-6.80656e-07
1.104e-06
-8.21326e-07
1.19693e-06
-9.32061e-07
1.27057e-06
-1.0134e-06
1.3236e-06
-1.06556e-06
1.35748e-06
-1.08989e-06
1.37443e-06
-1.08742e-06
1.3822e-06
-1.06378e-06
1.38522e-06
-1.02243e-06
1.38988e-06
-9.60277e-07
1.40444e-06
-8.84583e-07
1.43857e-06
-8.02296e-07
-7.28113e-07
1.48622e-06
1.2057e-07
1.22943e-06
1.74442e-07
1.33985e-06
1.91334e-07
1.24681e-06
2.06444e-07
1.08189e-06
2.38447e-07
8.93068e-07
3.00619e-07
6.92608e-07
3.99636e-07
4.79311e-07
5.34986e-07
2.53202e-07
7.00037e-07
1.81367e-08
8.80337e-07
-2.19683e-07
1.04487e-06
-4.44231e-07
1.17807e-06
-6.32587e-07
1.28032e-06
-7.83254e-07
1.35702e-06
-8.98149e-07
1.40872e-06
-9.83937e-07
1.44068e-06
-1.04567e-06
1.46137e-06
-1.08662e-06
1.47673e-06
-1.10561e-06
1.48767e-06
-1.09859e-06
1.49713e-06
-1.07321e-06
1.50298e-06
-1.028e-06
1.50952e-06
-9.66585e-07
1.52069e-06
-8.94192e-07
1.53745e-06
-8.18246e-07
-7.44996e-07
1.55573e-06
1.68349e-07
1.06504e-06
2.71238e-07
1.23986e-06
3.31324e-07
1.18952e-06
3.76756e-07
1.03764e-06
4.31903e-07
8.40466e-07
5.09992e-07
6.17406e-07
6.16297e-07
3.76369e-07
7.49084e-07
1.24993e-07
9.02252e-07
-1.31295e-07
1.05851e-06
-3.75087e-07
1.19484e-06
-5.75659e-07
1.29206e-06
-7.31108e-07
1.35258e-06
-8.4279e-07
1.38e-06
-9.25036e-07
1.39225e-06
-9.95862e-07
1.40407e-06
-1.05736e-06
1.41861e-06
-1.10111e-06
1.43499e-06
-1.12196e-06
1.4515e-06
-1.11498e-06
1.46619e-06
-1.08766e-06
1.47943e-06
-1.04091e-06
1.49358e-06
-9.80113e-07
1.50997e-06
-9.09954e-07
1.52802e-06
-8.35091e-07
-7.58741e-07
1.54278e-06
1.83053e-07
8.88158e-07
3.16512e-07
1.11022e-06
4.09622e-07
1.0989e-06
4.77718e-07
9.72614e-07
5.40576e-07
7.81097e-07
6.13825e-07
5.48561e-07
7.04366e-07
2.91815e-07
8.14525e-07
2.11409e-08
9.36734e-07
-2.48648e-07
1.05138e-06
-4.84743e-07
1.1328e-06
-6.57278e-07
1.16747e-06
-7.62487e-07
1.15863e-06
-8.32717e-07
1.13274e-06
-8.98217e-07
1.11245e-06
-9.74985e-07
1.11328e-06
-1.05777e-06
1.13566e-06
-1.12318e-06
1.17071e-06
-1.15672e-06
1.21284e-06
-1.15679e-06
1.25498e-06
-1.12942e-06
1.29598e-06
-1.08151e-06
1.3359e-06
-1.01956e-06
1.37464e-06
-9.48068e-07
1.40927e-06
-8.69167e-07
-7.83713e-07
1.43511e-06
1.60543e-07
7.3331e-07
2.98816e-07
9.76013e-07
4.08286e-07
9.93054e-07
4.87941e-07
8.96632e-07
5.49186e-07
7.23854e-07
6.05187e-07
4.99174e-07
6.64288e-07
2.41225e-07
7.28369e-07
-3.43349e-08
7.63888e-07
-2.77234e-07
7.39117e-07
-4.55982e-07
6.64865e-07
-5.76847e-07
5.60414e-07
-6.54917e-07
4.55189e-07
-7.24953e-07
3.87422e-07
-8.28533e-07
3.92301e-07
-9.78469e-07
4.63451e-07
-1.12789e-06
5.68522e-07
-1.22744e-06
6.81458e-07
-1.26899e-06
7.91581e-07
-1.26631e-06
8.94177e-07
-1.2315e-06
9.88393e-07
-1.17526e-06
1.07365e-06
-1.10452e-06
1.1487e-06
-1.02301e-06
1.21146e-06
-9.31167e-07
-8.34187e-07
1.26197e-06
1.20416e-07
6.2168e-07
2.39528e-07
8.62167e-07
3.39259e-07
8.97115e-07
4.10394e-07
8.28979e-07
4.5496e-07
6.87003e-07
4.73182e-07
4.89774e-07
4.76399e-07
2.50802e-07
4.34325e-07
2.46303e-08
2.87395e-07
-1.17598e-07
1.11135e-07
-2.69183e-07
-1.0207e-08
-4.47893e-07
-5.2507e-08
-6.06979e-07
-3.70798e-08
-7.34875e-07
1.94388e-08
-8.81315e-07
1.14936e-07
-1.07151e-06
2.32856e-07
-1.2441e-06
3.65166e-07
-1.35851e-06
5.01842e-07
-1.40471e-06
6.32507e-07
-1.39623e-06
7.53061e-07
-1.35142e-06
8.62335e-07
-1.28418e-06
9.59754e-07
-1.20175e-06
1.04628e-06
-1.10897e-06
1.12393e-06
-1.00947e-06
-9.12801e-07
1.20311e-06
7.95834e-08
5.47517e-07
1.6428e-07
7.8171e-07
2.33555e-07
8.32339e-07
2.83543e-07
7.87193e-07
3.13193e-07
6.62461e-07
3.17451e-07
4.9916e-07
2.36063e-07
3.5215e-07
8.03447e-08
2.04347e-07
-1.31746e-08
-3.93433e-09
-1.5207e-08
-2.56539e-07
1.94915e-08
-4.76374e-07
5.77344e-08
-6.37849e-07
9.46434e-08
-7.67607e-07
1.47832e-07
-9.31408e-07
2.29957e-07
-1.15145e-06
3.41461e-07
-1.35404e-06
4.66449e-07
-1.48229e-06
5.92261e-07
-1.52955e-06
7.12562e-07
-1.51571e-06
8.24767e-07
-1.46302e-06
9.28086e-07
-1.38695e-06
1.02362e-06
-1.29684e-06
1.11503e-06
-1.20084e-06
1.21341e-06
-1.10688e-06
-1.03206e-06
1.33236e-06
3.5568e-08
5.20654e-07
8.54203e-08
7.37946e-07
1.29626e-07
7.9378e-07
1.59043e-07
7.58472e-07
1.57507e-07
6.75595e-07
8.973e-08
5.74624e-07
-1.33298e-08
4.66198e-07
-8.48199e-08
2.89562e-07
-5.93337e-08
-1.70238e-08
1.24551e-08
-3.21854e-07
1.16477e-07
-5.7347e-07
2.01192e-07
-7.20069e-07
2.55239e-07
-8.18577e-07
3.03278e-07
-9.77386e-07
3.70449e-07
-1.21711e-06
4.6734e-07
-1.44974e-06
5.83695e-07
-1.59766e-06
7.06029e-07
-1.65103e-06
8.25942e-07
-1.63489e-06
9.40214e-07
-1.57662e-06
1.04923e-06
-1.49548e-06
1.1568e-06
-1.40419e-06
1.27101e-06
-1.31414e-06
1.40316e-06
-1.23953e-06
-1.19299e-06
1.56474e-06
-1.03905e-08
5.33599e-07
3.31507e-09
7.26373e-07
1.62239e-08
7.81134e-07
2.07204e-09
7.78699e-07
-6.50716e-08
7.41981e-07
-1.57625e-07
6.71996e-07
-2.19716e-07
5.33354e-07
-1.95745e-07
2.72246e-07
-1.02454e-07
-1.03875e-07
2.2823e-08
-4.42758e-07
1.48444e-07
-6.9853e-07
2.47036e-07
-8.15976e-07
3.18066e-07
-8.88447e-07
3.78686e-07
-1.03693e-06
4.52623e-07
-1.2901e-06
5.52223e-07
-1.54851e-06
6.71131e-07
-1.71582e-06
7.97278e-07
-1.7765e-06
9.22893e-07
-1.75987e-06
1.04575e-06
-1.69892e-06
1.1681e-06
-1.6173e-06
1.29574e-06
-1.53124e-06
1.43589e-06
-1.45441e-06
1.59534e-06
-1.39801e-06
-1.36941e-06
1.77187e-06
-3.76928e-08
5.74452e-07
-5.89163e-08
7.48754e-07
-9.50256e-08
8.18651e-07
-1.68889e-07
8.4951e-07
-2.54768e-07
8.30441e-07
-3.12995e-07
7.31158e-07
-3.09012e-07
5.31514e-07
-2.26976e-07
1.93281e-07
-1.194e-07
-2.0969e-07
2.44807e-08
-5.86837e-07
1.68271e-07
-8.40943e-07
2.94129e-07
-9.42468e-07
3.94156e-07
-9.88108e-07
4.72632e-07
-1.11491e-06
5.54296e-07
-1.37119e-06
6.55467e-07
-1.6491e-06
7.7321e-07
-1.83301e-06
8.97824e-07
-1.90057e-06
1.02337e-06
-1.88489e-06
1.14927e-06
-1.8243e-06
1.27857e-06
-1.74614e-06
1.41588e-06
-1.66823e-06
1.56473e-06
-1.60246e-06
1.72275e-06
-1.55604e-06
-1.5285e-06
1.88246e-06
-5.86566e-08
6.31305e-07
-1.1719e-07
8.05759e-07
-1.9682e-07
8.96044e-07
-2.85085e-07
9.38336e-07
-3.51299e-07
8.94316e-07
-3.6461e-07
7.44175e-07
-3.16332e-07
4.82942e-07
-2.37979e-07
1.14567e-07
-1.19446e-07
-3.29344e-07
3.95344e-08
-7.46353e-07
2.00612e-07
-1.00389e-06
3.5349e-07
-1.0955e-06
4.81218e-07
-1.11614e-06
5.81846e-07
-1.21542e-06
6.75299e-07
-1.46432e-06
7.79222e-07
-1.75264e-06
8.9348e-07
-1.94686e-06
1.01125e-06
-2.01793e-06
1.12906e-06
-2.0023e-06
1.24794e-06
-1.94279e-06
1.37094e-06
-1.86875e-06
1.50041e-06
-1.79723e-06
1.63533e-06
-1.7373e-06
1.77168e-06
-1.69164e-06
-1.65952e-06
1.90294e-06
-7.45697e-08
7.03506e-07
-1.59504e-07
8.88587e-07
-2.47938e-07
9.83103e-07
-3.17101e-07
1.00386e-06
-3.43619e-07
9.20402e-07
-3.26411e-07
7.25348e-07
-2.71178e-07
4.26532e-07
-2.13026e-07
5.35075e-08
-8.8422e-08
-4.55814e-07
7.384e-08
-9.10803e-07
2.4549e-07
-1.17627e-06
4.14295e-07
-1.26565e-06
5.63403e-07
-1.26565e-06
6.86768e-07
-1.33884e-06
7.97055e-07
-1.57445e-06
9.06714e-07
-1.86204e-06
1.01637e-06
-2.05623e-06
1.12291e-06
-2.12417e-06
1.22637e-06
-2.10546e-06
1.32962e-06
-2.04573e-06
1.43571e-06
-1.97453e-06
1.54584e-06
-1.90711e-06
1.65912e-06
-1.85e-06
1.77293e-06
-1.80535e-06
-1.77222e-06
1.88612e-06
-7.72844e-08
7.77335e-07
-1.66e-07
9.74713e-07
-2.41411e-07
1.05542e-06
-2.81868e-07
1.04397e-06
-2.80665e-07
9.16703e-07
-2.40904e-07
6.83999e-07
-1.89927e-07
3.72626e-07
-1.38804e-07
-1.16277e-09
-1.63051e-08
-5.8108e-07
1.38735e-07
-1.06749e-06
3.09612e-07
-1.34914e-06
4.82527e-07
-1.43923e-06
6.42705e-07
-1.42649e-06
7.85027e-07
-1.48135e-06
9.13177e-07
-1.70252e-06
1.02903e-06
-1.97771e-06
1.13165e-06
-2.15863e-06
1.22267e-06
-2.21498e-06
1.3071e-06
-2.18967e-06
1.39054e-06
-2.12895e-06
1.47705e-06
-2.06078e-06
1.56859e-06
-1.99834e-06
1.66541e-06
-1.94673e-06
1.76755e-06
-1.90694e-06
-1.87882e-06
1.87437e-06
-6.20962e-08
8.35752e-07
-1.35348e-07
1.04515e-06
-1.8554e-07
1.10428e-06
-1.98504e-07
1.05386e-06
-1.70804e-07
8.87702e-07
-1.12767e-07
6.23706e-07
-7.00157e-08
3.23532e-07
-1.15355e-08
-6.48977e-08
9.49073e-08
-6.90232e-07
2.34346e-07
-1.20919e-06
3.95459e-07
-1.51124e-06
5.60399e-07
-1.6056e-06
7.22131e-07
-1.58875e-06
8.78367e-07
-1.6378e-06
1.022e-06
-1.84615e-06
1.14126e-06
-2.09685e-06
1.23329e-06
-2.25052e-06
1.30597e-06
-2.2875e-06
1.3704e-06
-2.25395e-06
1.4355e-06
-2.19387e-06
1.50659e-06
-2.1317e-06
1.58611e-06
-2.07769e-06
1.67473e-06
-2.03495e-06
1.77165e-06
-2.00378e-06
-1.98283e-06
1.87604e-06
-3.3523e-08
8.66307e-07
-7.79658e-08
1.08732e-06
-9.94845e-08
1.12311e-06
-8.62805e-08
1.03981e-06
-3.53664e-08
8.33805e-07
4.45968e-08
5.37741e-07
7.90227e-08
2.79897e-07
1.38123e-07
-1.29095e-07
2.24313e-07
-7.79254e-07
3.48188e-07
-1.33468e-06
4.93012e-07
-1.65794e-06
6.44461e-07
-1.75769e-06
8.02545e-07
-1.74758e-06
9.6865e-07
-1.80422e-06
1.1224e-06
-1.99996e-06
1.239e-06
-2.21339e-06
1.31647e-06
-2.32788e-06
1.37034e-06
-2.34125e-06
1.4176e-06
-2.30109e-06
1.46936e-06
-2.24552e-06
1.531e-06
-2.19318e-06
1.60406e-06
-2.15055e-06
1.68787e-06
-2.11869e-06
1.78101e-06
-2.09652e-06
-2.08293e-06
1.88128e-06
4.12427e-09
8.59216e-07
-6.73594e-09
1.09581e-06
3.20396e-10
1.11466e-06
3.02947e-08
1.00613e-06
8.01237e-08
7.8114e-07
1.28106e-07
4.83467e-07
1.85809e-07
2.12434e-07
2.74421e-07
-2.22581e-07
3.55963e-07
-8.63283e-07
4.64685e-07
-1.44545e-06
5.9315e-07
-1.78732e-06
7.30857e-07
-1.89684e-06
8.86398e-07
-1.90374e-06
1.05857e-06
-1.97672e-06
1.21291e-06
-2.15439e-06
1.31775e-06
-2.31821e-06
1.37706e-06
-2.38712e-06
1.41415e-06
-2.37827e-06
1.4493e-06
-2.33617e-06
1.49333e-06
-2.28946e-06
1.54992e-06
-2.24966e-06
1.61889e-06
-2.21941e-06
1.69848e-06
-2.198e-06
1.78631e-06
-2.18428e-06
-2.17699e-06
1.88066e-06
4.82448e-08
8.0855e-07
7.10296e-08
1.07122e-06
1.00823e-07
1.08218e-06
1.43763e-07
9.61943e-07
1.95946e-07
7.24293e-07
2.47165e-07
4.2514e-07
3.28231e-07
1.22278e-07
4.09533e-07
-3.08056e-07
4.79528e-07
-9.35865e-07
5.75596e-07
-1.54307e-06
6.91227e-07
-1.90475e-06
8.21752e-07
-2.02805e-06
9.77368e-07
-2.06016e-06
1.1484e-06
-2.14816e-06
1.28933e-06
-2.29547e-06
1.37256e-06
-2.40145e-06
1.41243e-06
-2.42695e-06
1.43715e-06
-2.40293e-06
1.46596e-06
-2.36492e-06
1.50676e-06
-2.33019e-06
1.56074e-06
-2.30355e-06
1.62628e-06
-2.28479e-06
1.70096e-06
-2.27263e-06
1.78293e-06
-2.26595e-06
-2.26455e-06
1.87061e-06
9.55995e-08
7.10354e-07
1.52602e-07
1.0121e-06
2.04751e-07
1.02861e-06
2.6121e-07
9.01715e-07
3.22506e-07
6.59515e-07
3.84503e-07
3.56714e-07
4.63899e-07
3.53069e-08
5.26848e-07
-3.74953e-07
5.8731e-07
-9.98683e-07
6.78852e-07
-1.6365e-06
7.91263e-07
-2.01806e-06
9.20689e-07
-2.15885e-06
1.07493e-06
-2.21509e-06
1.23137e-06
-2.30502e-06
1.34373e-06
-2.40802e-06
1.39943e-06
-2.4572e-06
1.42296e-06
-2.45047e-06
1.44155e-06
-2.42149e-06
1.46924e-06
-2.39258e-06
1.50982e-06
-2.37071e-06
1.56237e-06
-2.35603e-06
1.62465e-06
-2.34699e-06
1.69465e-06
-2.34241e-06
1.77082e-06
-2.3421e-06
-2.34614e-06
1.85263e-06
1.43841e-07
5.6384e-07
2.34844e-07
9.18966e-07
3.05312e-07
9.55237e-07
3.74947e-07
8.30073e-07
4.42119e-07
5.87793e-07
5.08566e-07
2.83792e-07
5.75913e-07
-3.83151e-08
6.19479e-07
-4.22266e-07
6.80882e-07
-1.06246e-06
7.80636e-07
-1.73772e-06
8.96903e-07
-2.13597e-06
1.02651e-06
-2.28925e-06
1.16905e-06
-2.35843e-06
1.29426e-06
-2.4307e-06
1.36873e-06
-2.48271e-06
1.39911e-06
-2.48768e-06
1.41365e-06
-2.46503e-06
1.43244e-06
-2.44027e-06
1.46264e-06
-2.42275e-06
1.50454e-06
-2.41258e-06
1.55621e-06
-2.40763e-06
1.61561e-06
-2.40628e-06
1.68127e-06
-2.40806e-06
1.7526e-06
-2.41318e-06
-2.42252e-06
1.82905e-06
1.90551e-07
3.67967e-07
3.11375e-07
7.94987e-07
3.97563e-07
8.66843e-07
4.72277e-07
7.51834e-07
5.39379e-07
5.15911e-07
6.04184e-07
2.12788e-07
6.57489e-07
-9.76637e-08
6.88094e-07
-4.56632e-07
7.67647e-07
-1.14431e-06
8.85113e-07
-1.85692e-06
1.00643e-06
-2.25826e-06
1.12717e-06
-2.41119e-06
1.24254e-06
-2.47455e-06
1.32558e-06
-2.51421e-06
1.3645e-06
-2.5219e-06
1.37916e-06
-2.50246e-06
1.393e-06
-2.47893e-06
1.41621e-06
-2.46351e-06
1.45036e-06
-2.4569e-06
1.49382e-06
-2.45602e-06
1.54454e-06
-2.45831e-06
1.60109e-06
-2.46278e-06
1.66286e-06
-2.46962e-06
1.72939e-06
-2.47974e-06
-2.49376e-06
1.80081e-06
2.22323e-07
1.40924e-07
3.75686e-07
6.38657e-07
4.72474e-07
7.66903e-07
5.46747e-07
6.73864e-07
6.08102e-07
4.50194e-07
6.66766e-07
1.46733e-07
7.02664e-07
-1.39704e-07
7.37545e-07
-4.95206e-07
8.53076e-07
-1.26203e-06
9.90144e-07
-1.99541e-06
1.10762e-06
-2.37711e-06
1.20557e-06
-2.51004e-06
1.2818e-06
-2.55153e-06
1.32402e-06
-2.55692e-06
1.33996e-06
-2.53814e-06
1.35072e-06
-2.51339e-06
1.36913e-06
-2.49742e-06
1.39798e-06
-2.49241e-06
1.43558e-06
-2.49452e-06
1.47963e-06
-2.50007e-06
1.52866e-06
-2.50728e-06
1.58205e-06
-2.51608e-06
1.63963e-06
-2.52722e-06
1.70161e-06
-2.54149e-06
-2.55988e-06
1.76777e-06
2.08791e-07
-7.8068e-08
4.087e-07
4.34758e-07
5.20047e-07
6.52498e-07
5.92348e-07
5.98577e-07
6.46522e-07
3.89098e-07
6.95751e-07
9.07038e-08
7.08439e-07
-1.58029e-07
7.75203e-07
-5.65408e-07
9.37958e-07
-1.42678e-06
1.0865e-06
-2.14539e-06
1.18678e-06
-2.47841e-06
1.25013e-06
-2.57432e-06
1.28649e-06
-2.58864e-06
1.30097e-06
-2.57192e-06
1.30793e-06
-2.54542e-06
1.32217e-06
-2.52782e-06
1.34712e-06
-2.52249e-06
1.3805e-06
-2.52585e-06
1.4195e-06
-2.53355e-06
1.4624e-06
-2.54297e-06
1.50867e-06
-2.55352e-06
1.55839e-06
-2.56576e-06
1.61186e-06
-2.5805e-06
1.66903e-06
-2.59871e-06
-2.62083e-06
1.73015e-06
1.32852e-07
-2.18624e-07
3.84223e-07
1.80421e-07
5.22972e-07
5.10712e-07
5.95337e-07
5.20806e-07
6.43285e-07
3.37792e-07
6.72481e-07
5.34976e-08
6.74464e-07
-1.65586e-07
8.12151e-07
-7.05904e-07
1.02092e-06
-1.63716e-06
1.16561e-06
-2.29125e-06
1.23544e-06
-2.54918e-06
1.26277e-06
-2.60259e-06
1.2696e-06
-2.59613e-06
1.27004e-06
-2.57286e-06
1.27948e-06
-2.5552e-06
1.30006e-06
-2.54862e-06
1.32923e-06
-2.55181e-06
1.3637e-06
-2.56041e-06
1.40132e-06
-2.57122e-06
1.44145e-06
-2.58312e-06
1.48431e-06
-2.59635e-06
1.5303e-06
-2.61165e-06
1.57957e-06
-2.6298e-06
1.63238e-06
-2.65129e-06
-2.67689e-06
1.68844e-06
7.12964e-08
-2.94703e-07
3.0274e-07
-5.66605e-08
4.65801e-07
3.44101e-07
5.44961e-07
4.40618e-07
5.84465e-07
2.89517e-07
5.83766e-07
4.92727e-08
6.1489e-07
-2.0077e-07
8.60382e-07
-9.53325e-07
1.09675e-06
-1.87478e-06
1.21816e-06
-2.41356e-06
1.25083e-06
-2.58285e-06
1.24881e-06
-2.60113e-06
1.24327e-06
-2.59133e-06
1.24615e-06
-2.57626e-06
1.25992e-06
-2.56932e-06
1.28325e-06
-2.57218e-06
1.31248e-06
-2.58118e-06
1.34489e-06
-2.59291e-06
1.37947e-06
-2.60585e-06
1.4163e-06
-2.61997e-06
1.4558e-06
-2.63582e-06
1.49822e-06
-2.65404e-06
1.54375e-06
-2.67513e-06
1.59212e-06
-2.69973e-06
-2.72808e-06
1.64348e-06
2.8208e-08
-3.27762e-07
1.73096e-07
-2.05188e-07
3.38454e-07
1.76973e-07
4.21768e-07
3.4994e-07
4.62087e-07
2.49314e-07
4.39518e-07
6.50906e-08
5.93768e-07
-3.57645e-07
9.25269e-07
-1.28601e-06
1.15502e-06
-2.10535e-06
1.23707e-06
-2.49638e-06
1.23987e-06
-2.58603e-06
1.22803e-06
-2.59025e-06
1.22164e-06
-2.58543e-06
1.22672e-06
-2.58177e-06
1.24266e-06
-2.58558e-06
1.26573e-06
-2.59547e-06
1.29268e-06
-2.60828e-06
1.32202e-06
-2.62235e-06
1.35352e-06
-2.6374e-06
1.38739e-06
-2.65387e-06
1.42389e-06
-2.67228e-06
1.4631e-06
-2.69315e-06
1.50485e-06
-2.71692e-06
1.54923e-06
-2.74387e-06
-2.77468e-06
1.59582e-06
-6.22076e-09
-3.23271e-07
3.31306e-08
-2.49549e-07
1.59017e-07
4.62532e-08
2.43981e-07
2.67168e-07
2.567e-07
2.28577e-07
2.8082e-07
3.89232e-08
6.30523e-07
-7.08046e-07
9.96291e-07
-1.6523e-06
1.18367e-06
-2.29313e-06
1.22264e-06
-2.53562e-06
1.21133e-06
-2.57555e-06
1.20077e-06
-2.5798e-06
1.19783e-06
-2.58303e-06
1.20609e-06
-2.59041e-06
1.22266e-06
-2.60242e-06
1.24414e-06
-2.61714e-06
1.26857e-06
-2.63286e-06
1.2953e-06
-2.64917e-06
1.32429e-06
-2.66645e-06
1.35565e-06
-2.68523e-06
1.3894e-06
-2.70601e-06
1.42545e-06
-2.72917e-06