/*--------------------------------*- C++ -*----------------------------------*\
  =========                 |
  \\      /  F ield         | OpenFOAM: The Open Source CFD Toolbox
   \\    /   O peration     | Website:  https://openfoam.org
    \\  /    A nd           | Version:  13
     \\/     M anipulation  |
\*---------------------------------------------------------------------------*/
FoamFile
{
    format      ascii;
    class       volVectorField;
    location    "18";
    object      U;
}
// * * * * * * * * * * * * * * * * * * * * * * * * * * * * * * * * * * * * * //

dimensions      [0 1 -1 0 0 0 0];

internalField   nonuniform List<vector> 
6440
(
(3.22745e-08 -4.7069e-08 0)
(2.06122e-07 -1.06877e-07 0)
(5.37207e-07 -2.06692e-07 -9.42952e-21)
(1.00931e-06 -3.44234e-07 9.40935e-21)
(1.61322e-06 -4.90425e-07 0)
(2.28974e-06 -6.18478e-07 -1.86811e-20)
(2.98733e-06 -7.15331e-07 1.86021e-20)
(3.6628e-06 -7.84932e-07 0)
(4.25631e-06 -8.35804e-07 3.67571e-20)
(4.70101e-06 -8.56539e-07 -3.65277e-20)
(4.9763e-06 -8.49492e-07 -3.62359e-20)
(5.08624e-06 -8.14728e-07 1.73977e-23)
(5.02501e-06 -7.55375e-07 1.43902e-23)
(4.78339e-06 -6.71009e-07 3.53281e-20)
(4.3754e-06 -5.57385e-07 3.49816e-20)
(3.83839e-06 -4.07223e-07 -3.46358e-20)
(3.20646e-06 -2.23152e-07 0)
(2.50639e-06 -1.00855e-08 6.77992e-20)
(1.80563e-06 1.91067e-07 1.12033e-23)
(1.18768e-06 3.40663e-07 -6.62305e-20)
(6.79756e-07 4.16193e-07 6.5438e-20)
(3.10499e-07 4.21349e-07 -1.29208e-19)
(6.37955e-08 3.98195e-07 6.37529e-20)
(-7.92883e-09 2.53079e-07 -6.29188e-20)
(1.78215e-08 6.56261e-08 -7.54274e-24)
(9.69177e-08 -5.18332e-07 0)
(6.01029e-07 -1.17179e-06 0)
(1.39104e-06 -1.81068e-06 -9.60439e-21)
(2.41709e-06 -2.42951e-06 9.58482e-21)
(3.58146e-06 -2.8548e-06 0)
(4.78244e-06 -3.00288e-06 -1.90377e-20)
(5.92034e-06 -2.88974e-06 1.89611e-20)
(6.92102e-06 -2.58663e-06 0)
(7.75243e-06 -2.16395e-06 0)
(8.32065e-06 -1.63949e-06 0)
(8.54825e-06 -1.01936e-06 0)
(8.43942e-06 -3.37347e-07 -3.67117e-20)
(8.00382e-06 3.68119e-07 3.64275e-20)
(7.26849e-06 1.08452e-06 0)
(6.29127e-06 1.75116e-06 3.57781e-20)
(5.12759e-06 2.28393e-06 -3.54412e-20)
(3.83691e-06 2.61977e-06 0)
(2.46298e-06 2.68973e-06 0)
(1.10757e-06 2.48528e-06 6.86703e-20)
(-7.05905e-08 2.00704e-06 -6.78851e-20)
(-9.52913e-07 1.33796e-06 6.71048e-20)
(-1.38167e-06 5.99081e-07 -6.62773e-20)
(-1.36155e-06 -8.40961e-09 -6.54825e-20)
(-9.73007e-07 -4.09275e-07 -2.72874e-23)
(-2.98691e-07 -4.08156e-07 5.12244e-20)
(9.09196e-08 -1.3566e-06 0)
(6.51056e-07 -2.97052e-06 0)
(1.50357e-06 -4.27083e-06 -9.43989e-21)
(2.61052e-06 -5.31183e-06 9.42216e-21)
(3.87163e-06 -5.84798e-06 0)
(5.17695e-06 -5.80121e-06 -1.87248e-20)
(6.39684e-06 -5.25395e-06 3.7304e-20)
(7.43482e-06 -4.33122e-06 -1.85684e-20)
(8.26488e-06 -3.15643e-06 3.69242e-20)
(8.84286e-06 -1.82221e-06 -3.67222e-20)
(9.10525e-06 -3.7663e-07 -3.64695e-20)
(9.02529e-06 1.11924e-06 1.21656e-23)
(8.6787e-06 2.59266e-06 3.59574e-20)
(8.06094e-06 3.91298e-06 3.56608e-20)
(7.07343e-06 4.99547e-06 -9.78431e-24)
(5.77718e-06 5.69496e-06 -3.50501e-20)
(4.20801e-06 5.89259e-06 0)
(2.46725e-06 5.46151e-06 6.87461e-20)
(7.24608e-07 4.38203e-06 -6.8047e-20)
(-9.24361e-07 2.75721e-06 0)
(-2.30036e-06 8.18122e-07 6.66151e-20)
(-3.09411e-06 -1.06201e-06 -1.3173e-19)
(-3.1458e-06 -2.3323e-06 6.50969e-20)
(-2.38231e-06 -2.51223e-06 -6.43624e-20)
(-8.36897e-07 -1.25643e-06 5.1729e-20)
(8.62367e-08 -2.05108e-06 0)
(5.0523e-07 -4.40122e-06 0)
(1.17806e-06 -6.27186e-06 -9.25698e-21)
(2.09963e-06 -7.68011e-06 9.24094e-21)
(3.17109e-06 -8.26792e-06 0)
(4.30609e-06 -7.9842e-06 -1.83728e-20)
(5.41044e-06 -6.99932e-06 3.66135e-20)
(6.40769e-06 -5.49441e-06 -1.82309e-20)
(7.25997e-06 -3.64368e-06 0)
(7.92681e-06 -1.5818e-06 0)
(8.35643e-06 5.92537e-07 0)
(8.59445e-06 2.77497e-06 -3.56227e-20)
(8.55341e-06 4.86318e-06 3.53869e-20)
(8.1213e-06 6.6642e-06 3.51073e-20)
(7.35336e-06 8.00568e-06 -3.48404e-20)
(6.25992e-06 8.74561e-06 0)
(4.81784e-06 8.71475e-06 6.84653e-20)
(3.12027e-06 7.80043e-06 -6.78487e-20)
(1.23186e-06 5.966e-06 0)
(-8.31729e-07 3.39421e-06 0)
(-2.78899e-06 4.1437e-07 0)
(-4.14245e-06 -2.37628e-06 0)
(-4.48759e-06 -4.10922e-06 0)
(-3.5059e-06 -4.00527e-06 -6.38364e-20)
(-1.28399e-06 -1.70412e-06 -1.39803e-23)
(6.80506e-08 -2.54687e-06 0)
(2.60845e-07 -5.34789e-06 0)
(6.29267e-07 -7.69332e-06 -9.06219e-21)
(1.25318e-06 -9.45224e-06 9.04769e-21)
(2.06284e-06 -1.00984e-05 0)
(2.97162e-06 -9.61078e-06 -1.79951e-20)
(3.92243e-06 -8.24731e-06 3.58702e-20)
(4.82277e-06 -6.28312e-06 -1.78662e-20)
(5.60958e-06 -3.90423e-06 0)
(6.29591e-06 -1.28182e-06 0)
(6.90571e-06 1.43256e-06 0)
(7.39195e-06 4.11627e-06 -3.49601e-20)
(7.5725e-06 6.57498e-06 3.47457e-20)
(7.4085e-06 8.67628e-06 3.44819e-20)
(6.961e-06 1.01763e-05 -3.42387e-20)
(6.15094e-06 1.0904e-05 0)
(4.94185e-06 1.06864e-05 6.73474e-20)
(3.37216e-06 9.37652e-06 -6.67841e-20)
(1.40518e-06 6.93274e-06 0)
(-9.52414e-07 3.57726e-06 0)
(-3.35857e-06 -2.82283e-07 0)
(-5.18948e-06 -3.89862e-06 0)
(-5.84634e-06 -6.05495e-06 0)
(-4.68782e-06 -5.68591e-06 -6.31237e-20)
(-1.75662e-06 -2.26736e-06 5.20622e-20)
(5.89111e-08 -2.8095e-06 0)
(2.11731e-08 -5.78154e-06 0)
(6.46152e-08 -8.51655e-06 -8.86048e-21)
(3.41478e-07 -1.05739e-05 8.84735e-21)
(8.40758e-07 -1.12534e-05 0)
(1.47744e-06 -1.05937e-05 -1.76018e-20)
(2.15883e-06 -8.93577e-06 3.50942e-20)
(2.85685e-06 -6.6352e-06 -1.74843e-20)
(3.57311e-06 -3.87582e-06 3.48036e-20)
(4.29098e-06 -8.68916e-07 -3.4653e-20)
(5.02475e-06 2.21509e-06 0)
(5.6235e-06 5.22699e-06 -3.42528e-20)
(5.99246e-06 7.92002e-06 2.07143e-23)
(6.10384e-06 1.01615e-05 6.76366e-20)
(5.89851e-06 1.17406e-05 -3.35862e-20)
(5.36429e-06 1.24246e-05 0)
(4.4228e-06 1.20549e-05 6.6119e-20)
(3.00069e-06 1.04725e-05 -1.49746e-23)
(1.06415e-06 7.60687e-06 -3.69463e-24)
(-1.39055e-06 3.65284e-06 -6.44954e-20)
(-4.08895e-06 -9.0649e-07 0)
(-6.30479e-06 -5.22783e-06 0)
(-7.24114e-06 -7.78909e-06 0)
(-5.83567e-06 -7.27156e-06 -6.22649e-20)
(-2.1972e-06 -2.78311e-06 5.19561e-20)
(4.17364e-08 -2.85735e-06 0)
(-2.41866e-07 -5.7504e-06 0)
(-5.27187e-07 -8.8251e-06 -8.65565e-21)
(-6.23833e-07 -1.11285e-05 8.64378e-21)
(-4.84135e-07 -1.18056e-05 1.72461e-20)
(-1.85216e-07 -1.09863e-05 -3.44077e-20)
(2.07845e-07 -9.11472e-06 3.43012e-20)
(7.4223e-07 -6.55651e-06 -1.70931e-20)
(1.36159e-06 -3.54562e-06 0)
(2.01801e-06 -3.01974e-07 3.38771e-20)
(2.78343e-06 2.99819e-06 -3.37262e-20)
(3.43985e-06 6.12031e-06 -3.35182e-20)
(3.91235e-06 8.93137e-06 3.33407e-20)
(4.24226e-06 1.11998e-05 3.31052e-20)
(4.31637e-06 1.27531e-05 -3.29032e-20)
(4.0728e-06 1.33614e-05 0)
(3.39964e-06 1.28332e-05 6.48182e-20)
(2.16609e-06 1.10276e-05 -6.43488e-20)
(3.13636e-07 7.87756e-06 0)
(-2.18308e-06 3.46584e-06 6.33308e-20)
(-5.07087e-06 -1.69986e-06 -6.28032e-20)
(-7.56096e-06 -6.682e-06 0)
(-8.75778e-06 -9.64109e-06 0)
(-7.07877e-06 -9.02141e-06 -6.12979e-20)
(-2.69877e-06 -3.40741e-06 -1.87474e-23)
(2.63699e-08 -2.68695e-06 0)
(-5.40821e-07 -5.24847e-06 0)
(-1.14534e-06 -8.58993e-06 -8.45047e-21)
(-1.5909e-06 -1.10824e-05 8.43969e-21)
(-1.83042e-06 -1.17586e-05 0)
(-1.9002e-06 -1.08341e-05 -1.67975e-20)
(-1.81588e-06 -8.82686e-06 1.67554e-20)
(-1.53197e-06 -6.09491e-06 0)
(-1.11007e-06 -2.9456e-06 0)
(-5.04815e-07 3.95577e-07 0)
(1.91908e-07 3.76646e-06 0)
(8.42398e-07 6.92636e-06 -3.2772e-20)
(1.50425e-06 9.71976e-06 3.26105e-20)
(2.06081e-06 1.19257e-05 0)
(2.37885e-06 1.33813e-05 0)
(2.35672e-06 1.38544e-05 0)
(1.89278e-06 1.31555e-05 0)
(8.77082e-07 1.11357e-05 0)
(-8.83799e-07 7.7751e-06 6.25546e-20)
(-3.41406e-06 3.00012e-06 -6.20901e-20)
(-6.39636e-06 -2.67716e-06 0)
(-9.0538e-06 -8.25674e-06 0)
(-1.04762e-05 -1.15839e-05 0)
(-8.47443e-06 -1.08715e-05 -6.02526e-20)
(-3.29207e-06 -4.0658e-06 5.13413e-20)
(6.22959e-10 -2.29155e-06 0)
(-8.63785e-07 -4.28968e-06 0)
(-1.78502e-06 -7.79658e-06 -8.24719e-21)
(-2.63116e-06 -1.04738e-05 8.23738e-21)
(-3.32832e-06 -1.11592e-05 0)
(-3.78357e-06 -1.02152e-05 -1.63965e-20)
(-3.96831e-06 -8.20418e-06 3.27075e-20)
(-3.89239e-06 -5.48439e-06 -1.63048e-20)
(-3.67245e-06 -2.29645e-06 0)
(-3.23035e-06 1.12497e-06 0)
(-2.59019e-06 4.49548e-06 3.21854e-20)
(-1.86948e-06 7.68723e-06 -6.4073e-20)
(-1.1064e-06 1.04087e-05 3.18767e-20)
(-3.91456e-07 1.24192e-05 3.16657e-20)
(1.11673e-07 1.36481e-05 -3.14978e-20)
(2.75035e-07 1.39228e-05 0)
(3.7939e-08 1.30034e-05 -6.21125e-20)
(-7.45308e-07 1.0749e-05 6.17209e-20)
(-2.45535e-06 7.17137e-06 0)
(-4.98846e-06 2.1939e-06 0)
(-7.91369e-06 -3.90043e-06 0)
(-1.06091e-05 -1.00361e-05 6.00021e-20)
(-1.22019e-05 -1.37165e-05 -5.95295e-20)
(-9.86571e-06 -1.29264e-05 -5.91547e-20)
(-3.91267e-06 -4.7554e-06 5.08807e-20)
(-2.62154e-08 -1.67843e-06 0)
(-1.17908e-06 -2.91358e-06 0)
(-2.49464e-06 -6.48987e-06 0)
(-3.78702e-06 -9.30477e-06 0)
(-4.91804e-06 -9.97849e-06 0)
(-5.7906e-06 -8.99789e-06 0)
(-6.2961e-06 -6.99669e-06 0)
(-6.40877e-06 -4.37519e-06 0)
(-6.24593e-06 -1.35592e-06 -3.16978e-20)
(-5.87196e-06 1.97187e-06 3.15945e-20)
(-5.25861e-06 5.22879e-06 0)
(-4.54975e-06 8.24183e-06 0)
(-3.87747e-06 1.08202e-05 0)
(-3.12768e-06 1.27351e-05 0)
(-2.39688e-06 1.37138e-05 0)
(-2.01856e-06 1.36997e-05 0)
(-2.09444e-06 1.25419e-05 0)
(-2.7341e-06 1.0089e-05 -6.03481e-20)
(-4.23778e-06 6.24169e-06 5.99744e-20)
(-6.57389e-06 1.07333e-06 0)
(-9.47403e-06 -5.3432e-06 -5.91712e-20)
(-1.21864e-05 -1.20131e-05 5.87504e-20)
(-1.39665e-05 -1.60427e-05 0)
(-1.12537e-05 -1.52058e-05 0)
(-4.54902e-06 -5.43053e-06 0)
(-6.49769e-08 -8.36853e-07 0)
(-1.48314e-06 -1.08689e-06 0)
(-3.19301e-06 -4.63348e-06 0)
(-4.94805e-06 -7.41627e-06 0)
(-6.44617e-06 -8.07517e-06 0)
(-7.65849e-06 -7.14287e-06 0)
(-8.48591e-06 -5.28013e-06 1.5573e-20)
(-8.91848e-06 -2.88521e-06 -1.5536e-20)
(-8.89376e-06 -1.31096e-07 -3.09421e-20)
(-8.55658e-06 2.87168e-06 3.08478e-20)
(-8.0731e-06 5.88621e-06 3.06917e-20)
(-7.36289e-06 8.62481e-06 -3.05783e-20)
(-6.43881e-06 1.08756e-05 0)
(-5.52312e-06 1.24916e-05 3.0239e-20)
(-4.83688e-06 1.33239e-05 -3.008e-23)
(-4.39428e-06 1.31669e-05 -2.99205e-20)
(-4.26729e-06 1.17935e-05 0)
(-4.72515e-06 9.1797e-06 -5.9028e-20)
(-5.98753e-06 5.14643e-06 5.86857e-20)
(-8.17043e-06 -2.4029e-07 0)
(-1.10863e-05 -6.95255e-06 0)
(-1.37843e-05 -1.41409e-05 5.75702e-20)
(-1.57896e-05 -1.85525e-05 -5.71712e-20)
(-1.26885e-05 -1.76497e-05 0)
(-5.24807e-06 -6.06873e-06 0)
(-7.91853e-08 1.70664e-07 0)
(-1.70945e-06 1.04759e-06 0)
(-3.72642e-06 -2.45167e-06 0)
(-5.92009e-06 -5.21574e-06 0)
(-7.89398e-06 -5.9051e-06 0)
(-9.52864e-06 -5.13676e-06 0)
(-1.07623e-05 -3.52171e-06 0)
(-1.14213e-05 -1.39711e-06 0)
(-1.14612e-05 1.06348e-06 0)
(-1.11337e-05 3.67087e-06 0)
(-1.05485e-05 6.33113e-06 -2.99667e-20)
(-9.74795e-06 8.79129e-06 2.9863e-20)
(-8.86098e-06 1.08048e-05 0)
(-7.85627e-06 1.20785e-05 0)
(-6.84543e-06 1.24705e-05 0)
(-6.23988e-06 1.20695e-05 0)
(-6.05568e-06 1.07179e-05 0)
(-6.41585e-06 8.01617e-06 0)
(-7.56511e-06 3.87726e-06 0)
(-9.65747e-06 -1.67909e-06 0)
(-1.25516e-05 -8.54565e-06 0)
(-1.53234e-05 -1.61873e-05 -5.63457e-20)
(-1.76943e-05 -2.1033e-05 5.59787e-20)
(-1.42347e-05 -2.0218e-05 0)
(-6.08716e-06 -6.69651e-06 0)
(-9.882e-08 1.30261e-06 0)
(-1.96641e-06 3.42969e-06 0)
(-4.31463e-06 7.79192e-08 0)
(-6.8647e-06 -2.71468e-06 0)
(-9.1966e-06 -3.52519e-06 1.4911e-20)
(-1.11395e-05 -2.99286e-06 -1.48886e-20)
(-1.25599e-05 -1.67467e-06 0)
(-1.33646e-05 1.71517e-07 0)
(-1.35578e-05 2.28417e-06 -2.94868e-20)
(-1.32221e-05 4.52069e-06 5.8786e-20)
(-1.25253e-05 6.74504e-06 -3.02028e-23)
(-1.16069e-05 8.74815e-06 -2.91659e-20)
(-1.05351e-05 1.03315e-05 0)
(-9.46508e-06 1.13695e-05 0)
(-8.4263e-06 1.15832e-05 2.87124e-20)
(-7.42616e-06 1.07831e-05 -2.85878e-20)
(-7.0467e-06 9.12996e-06 -5.67849e-20)
(-7.54389e-06 6.60237e-06 5.61286e-23)
(-8.63452e-06 2.54442e-06 5.61642e-20)
(-1.05096e-05 -3.10759e-06 5.57784e-20)
(-1.34223e-05 -9.98221e-06 -5.54625e-20)
(-1.64807e-05 -1.8093e-05 5.5125e-20)
(-1.93727e-05 -2.34939e-05 -5.47871e-20)
(-1.57208e-05 -2.30282e-05 0)
(-7.04567e-06 -7.30924e-06 0)
(-1.07765e-07 2.56343e-06 0)
(-2.12095e-06 6.16195e-06 0)
(-4.71602e-06 3.11009e-06 0)
(-7.57609e-06 3.13688e-07 0)
(-1.01792e-05 -6.83879e-07 0)
(-1.22898e-05 -5.07549e-07 0)
(-1.38163e-05 3.67596e-07 0)
(-1.47077e-05 1.71469e-06 0)
(-1.49042e-05 3.3666e-06 -2.87948e-20)
(-1.45133e-05 5.19561e-06 2.87226e-20)
(-1.37332e-05 6.94619e-06 0)
(-1.26664e-05 8.48587e-06 0)
(-1.13957e-05 9.66839e-06 0)
(-1.00344e-05 1.03155e-05 0)
(-8.76901e-06 1.02848e-05 0)
(-7.84176e-06 9.439e-06 0)
(-7.19745e-06 7.61645e-06 0)
(-7.39088e-06 4.86944e-06 -5.52095e-20)
(-8.5805e-06 1.27308e-06 5.49434e-20)
(-1.03546e-05 -4.18977e-06 0)
(-1.35242e-05 -1.10683e-05 0)
(-1.70868e-05 -1.96382e-05 0)
(-2.07357e-05 -2.57947e-05 0)
(-1.71971e-05 -2.59962e-05 0)
(-8.17999e-06 -7.80069e-06 0)
(-8.47066e-08 3.86201e-06 0)
(-2.13176e-06 9.03315e-06 0)
(-4.95284e-06 6.28392e-06 0)
(-8.0272e-06 3.45946e-06 0)
(-1.07453e-05 2.18247e-06 0)
(-1.2901e-05 1.86598e-06 0)
(-1.43943e-05 2.13956e-06 0)
(-1.5165e-05 2.88271e-06 0)
(-1.51668e-05 4.00725e-06 0)
(-1.46311e-05 5.34871e-06 0)
(-1.37082e-05 6.62393e-06 2.79186e-20)
(-1.23619e-05 7.66886e-06 -2.78387e-20)
(-1.07751e-05 8.5431e-06 0)
(-9.22652e-06 9.13875e-06 0)
(-7.83435e-06 9.11612e-06 2.74161e-20)
(-6.53305e-06 8.24451e-06 -2.73108e-20)
(-5.89921e-06 6.69683e-06 -5.42758e-20)
(-5.90377e-06 3.9183e-06 5.40422e-20)
(-6.76992e-06 3.09511e-07 0)
(-8.85057e-06 -4.74678e-06 0)
(-1.26067e-05 -1.13467e-05 0)
(-1.68586e-05 -2.03825e-05 5.26974e-20)
(-2.17539e-05 -2.75865e-05 -1.04806e-19)
(-1.87701e-05 -2.90229e-05 5.20988e-20)
(-9.57316e-06 -8.191e-06 0)
(-7.54709e-08 5.12562e-06 0)
(-2.09461e-06 1.18886e-05 0)
(-4.96797e-06 9.47162e-06 0)
(-8.04418e-06 6.5591e-06 0)
(-1.07535e-05 4.91582e-06 0)
(-1.28028e-05 3.98834e-06 0)
(-1.40518e-05 3.54508e-06 -1.38309e-20)
(-1.44561e-05 3.58264e-06 1.38069e-20)
(-1.40679e-05 4.00611e-06 -2.74922e-20)
(-1.32463e-05 4.61648e-06 2.74313e-20)
(-1.20925e-05 5.46711e-06 -2.72857e-20)
(-1.03025e-05 6.16168e-06 2.72123e-20)
(-8.07019e-06 6.82655e-06 0)
(-6.03333e-06 7.24434e-06 -2.69234e-20)
(-4.42283e-06 7.28234e-06 2.68321e-20)
(-3.15857e-06 6.80376e-06 0)
(-2.5601e-06 5.63373e-06 0)
(-2.58725e-06 3.6408e-06 -5.27729e-20)
(-3.52356e-06 3.7137e-07 6.90129e-23)
(-5.58757e-06 -4.27855e-06 5.22388e-20)
(-1.00794e-05 -1.07528e-05 0)
(-1.56406e-05 -2.00818e-05 -5.14883e-20)
(-2.24848e-05 -2.83838e-05 5.12221e-20)
(-2.05448e-05 -3.23895e-05 0)
(-1.1327e-05 -8.65835e-06 -4.59166e-20)
(-3.98965e-08 6.27855e-06 0)
(-1.88789e-06 1.46392e-05 0)
(-4.70058e-06 1.26234e-05 0)
(-7.60293e-06 9.5451e-06 0)
(-1.009e-05 7.39214e-06 0)
(-1.18628e-05 5.81287e-06 0)
(-1.26337e-05 4.59605e-06 0)
(-1.24854e-05 3.74953e-06 0)
(-1.16759e-05 3.38008e-06 0)
(-1.02172e-05 3.27982e-06 0)
(-8.27895e-06 3.60501e-06 0)
(-5.73375e-06 4.08106e-06 0)
(-2.96685e-06 4.66377e-06 0)
(-6.88473e-07 5.02713e-06 0)
(1.33048e-06 5.20815e-06 0)
(3.02347e-06 5.09787e-06 0)
(3.83787e-06 4.57138e-06 0)
(3.67326e-06 3.67749e-06 0)
(2.58531e-06 1.81638e-06 0)
(-2.30659e-07 -1.77034e-06 0)
(-5.99034e-06 -7.53601e-06 0)
(-1.2576e-05 -1.74283e-05 0)
(-2.25422e-05 -2.82023e-05 0)
(-2.25302e-05 -3.75959e-05 0)
(-1.33806e-05 -9.11937e-06 0)
(3.31442e-08 7.25512e-06 3.14199e-21)
(-1.5013e-06 1.71656e-05 3.33288e-21)
(-4.04621e-06 1.53641e-05 -6.66445e-21)
(-6.62304e-06 1.18421e-05 1.33076e-20)
(-8.6492e-06 8.88753e-06 -1.32958e-20)
(-9.86454e-06 6.50666e-06 0)
(-1.00935e-05 4.54914e-06 1.32293e-20)
(-9.22114e-06 2.93995e-06 1.31777e-20)
(-7.48365e-06 1.80974e-06 -5.26455e-20)
(-5.08492e-06 1.16657e-06 2.62534e-20)
(-2.14924e-06 7.74462e-07 2.61126e-20)
(1.32427e-06 1.05878e-06 -2.60501e-20)
(4.7337e-06 1.33841e-06 -2.58854e-20)
(7.67814e-06 1.99395e-06 5.1575e-20)
(1.04026e-05 2.96043e-06 -5.33645e-23)
(1.24369e-05 3.88892e-06 2.54403e-20)
(1.36216e-05 4.39918e-06 -5.08128e-20)
(1.39313e-05 4.42318e-06 -5.04112e-20)
(1.22007e-05 3.57916e-06 1.00309e-19)
(8.20494e-06 2.54485e-07 -4.98887e-20)
(1.22134e-06 -6.26265e-06 0)
(-8.52798e-06 -1.65924e-05 4.90358e-20)
(-2.41685e-05 -2.82439e-05 -9.74784e-20)
(-2.30229e-05 -4.34789e-05 4.8435e-20)
(-1.29162e-05 -4.51849e-06 4.394e-20)
(9.89553e-08 8.06715e-06 0)
(-1.13281e-06 1.95135e-05 0)
(-3.42035e-06 1.78227e-05 0)
(-5.47836e-06 1.36739e-05 0)
(-6.66868e-06 9.71411e-06 0)
(-6.88151e-06 6.22828e-06 0)
(-6.10271e-06 3.14854e-06 0)
(-4.26152e-06 5.21859e-07 0)
(-1.52839e-06 -1.73948e-06 0)
(1.78585e-06 -3.177e-06 0)
(6.06922e-06 -3.98573e-06 0)
(1.07019e-05 -4.11551e-06 0)
(1.50851e-05 -3.85019e-06 0)
(1.944e-05 -2.68726e-06 0)
(2.31404e-05 -9.66142e-07 0)
(2.5624e-05 1.16027e-06 0)
(2.69177e-05 3.39624e-06 0)
(2.64861e-05 5.14197e-06 0)
(2.3012e-05 7.21652e-06 -4.89803e-20)
(1.63572e-05 9.72778e-06 4.8793e-20)
(7.44179e-06 1.07027e-05 0)
(-2.2108e-06 6.27637e-06 0)
(-1.67347e-05 -6.47326e-06 0)
(-4.1281e-06 -3.74843e-05 0)
(-5.98518e-06 1.29993e-05 0)
(1.77946e-07 8.71063e-06 0)
(-6.32252e-07 2.14622e-05 0)
(-2.50499e-06 1.96291e-05 0)
(-3.92618e-06 1.47119e-05 0)
(-4.21229e-06 9.62072e-06 0)
(-3.41197e-06 4.76838e-06 0)
(-1.64238e-06 3.94447e-07 0)
(1.15434e-06 -3.31026e-06 0)
(5.16319e-06 -6.27511e-06 0)
(1.02967e-05 -8.32361e-06 0)
(1.59876e-05 -9.2361e-06 -2.50657e-20)
(2.17609e-05 -9.48325e-06 2.50113e-20)
(2.7724e-05 -8.76503e-06 0)
(3.33019e-05 -7.12229e-06 0)
(3.76899e-05 -4.51348e-06 0)
(4.07241e-05 -7.92281e-07 0)
(4.17861e-05 3.63369e-06 0)
(4.13727e-05 7.65779e-06 0)
(3.9489e-05 1.00726e-05 0)
(3.54109e-05 9.3502e-06 0)
(2.78033e-05 1.20975e-06 0)
(1.44303e-05 -2.22805e-05 -4.63998e-20)
(-7.15871e-06 -6.90068e-05 4.6199e-20)
(2.98779e-07 -0.000133955 0)
(-5.70169e-05 -3.62146e-05 0)
(2.03485e-07 8.88388e-06 0)
(-2.40485e-07 2.2549e-05 0)
(-1.533e-06 2.03648e-05 0)
(-2.11878e-06 1.4433e-05 0)
(-1.52752e-06 8.14145e-06 0)
(3.50269e-07 1.9464e-06 0)
(3.41749e-06 -3.64014e-06 0)
(7.69798e-06 -8.25766e-06 0)
(1.31396e-05 -1.1649e-05 0)
(1.94865e-05 -1.40338e-05 0)
(2.63944e-05 -1.53301e-05 0)
(3.34655e-05 -1.53484e-05 0)
(4.04423e-05 -1.38132e-05 0)
(4.69037e-05 -1.09909e-05 0)
(5.2531e-05 -6.47323e-06 0)
(5.63829e-05 -3.45587e-07 0)
(5.76344e-05 7.14655e-06 0)
(5.55551e-05 1.54809e-05 0)
(4.82159e-05 2.28204e-05 0)
(3.27763e-05 2.7627e-05 0)
(4.44471e-06 2.60267e-05 0)
(-4.42625e-05 1.46284e-05 0)
(-0.000131954 -6.57196e-06 0)
(-0.000287972 6.49045e-06 0)
(-0.000528897 0.000224348 0)
(2.50811e-07 8.68189e-06 0)
(1.26585e-07 2.30566e-05 0)
(-5.4053e-07 2.05931e-05 0)
(-2.42339e-07 1.36589e-05 0)
(1.29835e-06 6.18638e-06 0)
(4.20283e-06 -1.13463e-06 0)
(8.49977e-06 -7.8893e-06 0)
(1.41106e-05 -1.36633e-05 0)
(2.07941e-05 -1.82871e-05 0)
(2.8376e-05 -2.15968e-05 0)
(3.67387e-05 -2.34606e-05 0)
(4.55658e-05 -2.36696e-05 0)
(5.43715e-05 -2.20053e-05 0)
(6.26712e-05 -1.82971e-05 0)
(7.00519e-05 -1.24435e-05 0)
(7.58802e-05 -4.68359e-06 0)
(7.92375e-05 5.55377e-06 0)
(7.89839e-05 1.78892e-05 0)
(7.34355e-05 3.23978e-05 0)
(5.93082e-05 4.97017e-05 0)
(3.19124e-05 7.13267e-05 0)
(-1.51132e-05 0.000100161 0)
(-9.7468e-05 0.000142674 0)
(-0.000236638 0.000224303 0)
(-0.000441707 0.000430252 0)
(2.90283e-07 8.37992e-06 0)
(4.88565e-07 2.32604e-05 0)
(4.9557e-07 2.03026e-05 0)
(1.72119e-06 1.22059e-05 0)
(4.33668e-06 3.38883e-06 0)
(8.41494e-06 -5.23664e-06 0)
(1.39648e-05 -1.32365e-05 0)
(2.08833e-05 -2.02549e-05 0)
(2.90253e-05 -2.59969e-05 0)
(3.82277e-05 -3.01439e-05 0)
(4.82752e-05 -3.25111e-05 0)
(5.88994e-05 -3.29457e-05 0)
(6.98295e-05 -3.12498e-05 0)
(8.05871e-05 -2.71093e-05 0)
(9.05609e-05 -2.02659e-05 0)
(9.94008e-05 -1.04741e-05 0)
(0.000106202 2.59765e-06 0)
(0.00010963 1.9387e-05 0)
(0.000108289 4.05705e-05 0)
(9.99098e-05 6.75644e-05 0)
(8.05065e-05 0.000103848 0)
(4.57181e-05 0.000155056 0)
(-1.16318e-05 0.00023093 0)
(-9.81751e-05 0.000353139 0)
(-0.000212695 0.000561864 0)
(3.06997e-07 7.89436e-06 0)
(8.4481e-07 2.2971e-05 0)
(1.52672e-06 1.92562e-05 0)
(3.64355e-06 9.7885e-06 0)
(7.32342e-06 -5.70841e-07 0)
(1.2596e-05 -1.0752e-05 0)
(1.94351e-05 -2.02591e-05 0)
(2.77591e-05 -2.8689e-05 0)
(3.74474e-05 -3.56706e-05 0)
(4.83472e-05 -4.09183e-05 0)
(6.02664e-05 -4.41601e-05 0)
(7.29657e-05 -4.51493e-05 0)
(8.61749e-05 -4.36095e-05 0)
(9.95304e-05 -3.93091e-05 0)
(0.00011262 -3.18193e-05 0)
(0.000124933 -2.06547e-05 0)
(0.000135722 -5.46439e-06 0)
(0.000144 1.46553e-05 0)
(0.000148524 4.09613e-05 0)
(0.000147705 7.54395e-05 0)
(0.000139173 0.000121645 0)
(0.000120613 0.000186191 0)
(9.00844e-05 0.000278722 0)
(4.86218e-05 0.000415755 0)
(2.65328e-06 0.00061854 0)
(3.15947e-07 7.22737e-06 0)
(1.20099e-06 2.2161e-05 0)
(2.55838e-06 1.74316e-05 0)
(5.54865e-06 6.42381e-06 0)
(1.02762e-05 -5.59832e-06 0)
(1.67398e-05 -1.74337e-05 0)
(2.48956e-05 -2.85357e-05 0)
(3.46664e-05 -3.84535e-05 0)
(4.59459e-05 -4.68001e-05 0)
(5.86017e-05 -5.32496e-05 0)
(7.24724e-05 -5.75009e-05 0)
(8.73598e-05 -5.92578e-05 0)
(0.00010303 -5.81956e-05 0)
(0.000119199 -5.39701e-05 0)
(0.000135542 -4.61297e-05 0)
(0.000151626 -3.41605e-05 0)
(0.000166886 -1.73622e-05 0)
(0.000180647 5.27969e-06 0)
(0.000192052 3.53148e-05 0)
(0.000200097 7.50377e-05 0)
(0.000203693 0.000128016 0)
(0.000202219 0.000200039 0)
(0.000196325 0.00029916 0)
(0.000189806 0.000436423 0)
(0.000191288 0.000623351 0)
(3.16362e-07 6.3865e-06 0)
(1.54502e-06 2.0827e-05 0)
(3.57267e-06 1.48307e-05 0)
(7.41928e-06 2.09669e-06 0)
(1.31698e-05 -1.17423e-05 0)
(2.08028e-05 -2.53639e-05 0)
(3.02638e-05 -3.81865e-05 0)
(4.14765e-05 -4.97345e-05 0)
(5.4347e-05 -5.96005e-05 0)
(6.87642e-05 -6.74328e-05 0)
(8.45987e-05 -7.29064e-05 0)
(0.000101696 -7.56943e-05 0)
(0.000119874 -7.54398e-05 0)
(0.000138919 -7.17382e-05 0)
(0.000158588 -6.40993e-05 0)
(0.000178575 -5.19291e-05 0)
(0.000198518 -3.44137e-05 0)
(0.000218014 -1.04399e-05 0)
(0.000236606 2.1585e-05 0)
(0.000253871 6.39435e-05 0)
(0.00026963 0.000119912 0)
(0.000284394 0.000194168 0)
(0.000300093 0.000292731 0)
(0.00032129 0.000422583 0)
(0.000356155 0.000589534 0)
(3.12664e-07 5.37553e-06 0)
(1.87579e-06 1.89827e-05 0)
(4.5546e-06 1.14827e-05 0)
(9.2275e-06 -3.16015e-06 0)
(1.59627e-05 -1.8973e-05 0)
(2.47231e-05 -3.4524e-05 0)
(3.54448e-05 -4.92065e-05 0)
(4.80545e-05 -6.25329e-05 0)
(6.24707e-05 -7.40835e-05 0)
(7.86057e-05 -8.34928e-05 0)
(9.63602e-05 -9.0419e-05 0)
(0.000115621 -9.45154e-05 0)
(0.00013626 -9.54052e-05 0)
(0.000158132 -9.2657e-05 0)
(0.000181077 -8.57528e-05 0)
(0.000204919 -7.40573e-05 0)
(0.000229475 -5.67333e-05 0)
(0.000254595 -3.26699e-05 0)
(0.000280173 -3.74202e-07 0)
(0.000306244 4.22257e-05 0)
(0.000333251 9.79221e-05 0)
(0.000362398 0.000170312 0)
(0.000396159 0.000263611 0)
(0.000438971 0.000381989 0)
(0.000497681 0.000527916 0)
(3.10669e-07 4.20324e-06 0)
(2.19593e-06 1.66468e-05 0)
(5.49347e-06 7.42035e-06 0)
(1.09519e-05 -9.30107e-06 0)
(1.86187e-05 -2.7235e-05 0)
(2.84439e-05 -4.48516e-05 0)
(4.03573e-05 -6.15276e-05 0)
(5.42898e-05 -7.67741e-05 0)
(7.01747e-05 -9.01696e-05 0)
(8.7945e-05 -0.000101343 0)
(0.000107529 -0.000109943 0)
(0.000128851 -0.000115614 0)
(0.000151832 -0.000117973 0)
(0.000176392 -0.000116581 0)
(0.000202456 -0.00011092 0)
(0.000229963 -0.000100353 0)
(0.000258881 -8.40783e-05 0)
(0.00028924 -6.10568e-05 0)
(0.000321209 -2.99625e-05 0)
(0.00035521 1.09569e-05 0)
(0.00039205 6.39374e-05 0)
(0.000433258 0.000131622 0)
(0.000481429 0.000216809 0)
(0.000540551 0.000321831 0)
(0.000616125 0.000447363 0)
(3.11942e-07 2.88041e-06 0)
(2.50426e-06 1.38417e-05 0)
(6.38122e-06 2.68127e-06 0)
(1.25744e-05 -1.62736e-05 0)
(2.11083e-05 -3.64625e-05 0)
(3.19209e-05 -5.62688e-05 0)
(4.49392e-05 -7.50636e-05 0)
(6.01021e-05 -9.23662e-05 0)
(7.73554e-05 -0.000107759 0)
(9.66484e-05 -0.000120871 0)
(0.000117934 -0.00013135 0)
(0.000141169 -0.000138842 0)
(0.000166318 -0.000142968 0)
(0.000193359 -0.000143303 0)
(0.000222295 -0.000139347 0)
(0.000253157 -0.000130499 0)
(0.000286032 -0.00011603 0)
(0.000321101 -9.50238e-05 0)
(0.000358721 -6.63239e-05 0)
(0.000399539 -2.8529e-05 0)
(0.000444571 2.00243e-05 0)
(0.000495437 8.1187e-05 0)
(0.000554611 0.000156701 0)
(0.000625549 0.000247711 0)
(0.0007126 0.000353943 0)
(3.15776e-07 1.41719e-06 0)
(2.79794e-06 1.05938e-05 0)
(7.21013e-06 -2.69146e-06 0)
(1.40816e-05 -2.4017e-05 0)
(2.34092e-05 -4.65791e-05 0)
(3.51211e-05 -6.86876e-05 0)
(4.91479e-05 -8.97186e-05 0)
(6.54347e-05 -0.000109204 0)
(8.39362e-05 -0.000126734 0)
(0.000104615 -0.00014194 0)
(0.000127444 -0.000154481 0)
(0.00015241 -0.000164015 0)
(0.000179515 -0.000170177 0)
(0.000208785 -0.000172562 0)
(0.000240286 -0.000170711 0)
(0.000274122 -0.000164087 0)
(0.000310471 -0.00015204 0)
(0.000349629 -0.000133794 0)
(0.000392067 -0.00010841 0)
(0.000438525 -7.48121e-05 0)
(0.000490099 -3.18137e-05 0)
(0.000548376 2.17976e-05 0)
(0.000615569 8.6988e-05 0)
(0.000694569 0.000164131 0)
(0.000788809 0.000252444 0)
(3.20643e-07 -1.75571e-07 0)
(3.07198e-06 6.93506e-06 0)
(7.97493e-06 -8.64429e-06 0)
(1.54635e-05 -3.24611e-05 0)
(2.55048e-05 -5.74996e-05 0)
(3.80239e-05 -8.20127e-05 0)
(5.29554e-05 -0.000105386 0)
(7.02476e-05 -0.000127166 0)
(8.98612e-05 -0.000146954 0)
(0.00011177 -0.000164394 0)
(0.000135964 -0.000179159 0)
(0.000162456 -0.000190926 0)
(0.000191281 -0.000199354 0)
(0.000222503 -0.000204073 0)
(0.000256223 -0.000204669 0)
(0.000292611 -0.000200671 0)
(0.000331917 -0.000191529 0)
(0.000374501 -0.000176612 0)
(0.00042089 -0.000155197 0)
(0.000471847 -0.000126503 0)
(0.000528448 -8.97223e-05 0)
(0.000592164 -4.41308e-05 0)
(0.000664911 1.06984e-05 0)
(0.000749046 7.46472e-05 0)
(0.000847255 0.000146688 0)
(3.26216e-07 -1.88676e-06 0)
(3.32622e-06 2.89895e-06 0)
(8.67085e-06 -1.51233e-05 0)
(1.67106e-05 -4.1533e-05 0)
(2.73844e-05 -6.91362e-05 0)
(4.06164e-05 -9.61433e-05 0)
(5.63428e-05 -0.000121951 0)
(7.45122e-05 -0.00014612 0)
(9.50893e-05 -0.000168267 0)
(0.00011806 -0.000188058 0)
(0.000143431 -0.000205184 0)
(0.000171233 -0.000219345 0)
(0.000201523 -0.000230231 0)
(0.000234395 -0.000237514 0)
(0.000269986 -0.00024083 0)
(0.000308501 -0.000239775 0)
(0.000350229 -0.000233906 0)
(0.000395563 -0.000222729 0)
(0.000445053 -0.000205714 0)
(0.000499447 -0.000182327 0)
(0.000559744 -0.000152062 0)
(0.000627242 -0.000114569 0)
(0.000703555 -6.97801e-05 0)
(0.000790585 -1.81066e-05 0)
(0.000890403 3.93181e-05 0)
(3.31294e-07 -3.70559e-06 0)
(3.55645e-06 -1.48032e-06 0)
(9.29527e-06 -2.20757e-05 0)
(1.78196e-05 -5.11598e-05 0)
(2.90441e-05 -8.14008e-05 0)
(4.28919e-05 -0.000110975 0)
(5.92978e-05 -0.000139289 0)
(7.82111e-05 -0.000165923 0)
(9.96021e-05 -0.000190514 0)
(0.000123466 -0.00021275 0)
(0.000149821 -0.000232346 0)
(0.000178709 -0.000249028 0)
(0.000210205 -0.000262522 0)
(0.000244422 -0.000272541 0)
(0.000281521 -0.000278779 0)
(0.000321728 -0.000280904 0)
(0.000365349 -0.000278569 0)
(0.000412789 -0.000271404 0)
(0.000464589 -0.000259041 0)
(0.000521453 -0.000241144 0)
(0.000584277 -0.000217451 0)
(0.000654179 -0.000187873 0)
(0.000732489 -0.000152588 0)
(0.000820721 -0.000112158 0)
(0.000920464 -6.77421e-05 0)
(3.35821e-07 -5.61824e-06 0)
(3.76156e-06 -6.16532e-06 0)
(9.84591e-06 -2.94427e-05 0)
(1.87891e-05 -6.12661e-05 0)
(3.04827e-05 -9.42034e-05 0)
(4.48478e-05 -0.000126401 0)
(6.18173e-05 -0.000157276 0)
(8.1342e-05 -0.000186432 0)
(0.000103398 -0.000213534 0)
(0.000127986 -0.000238288 0)
(0.000155129 -0.000260436 0)
(0.000184879 -0.000279735 0)
(0.000217321 -0.000295946 0)
(0.00025258 -0.000308827 0)
(0.00029083 -0.000318127 0)
(0.000332303 -0.000323588 0)
(0.000377309 -0.000324944 0)
(0.000426246 -0.000321939 0)
(0.000479626 -0.000314338 0)
(0.000538089 -0.00030196 0)
(0.000602427 -0.000284726 0)
(0.000673583 -0.000262722 0)
(0.000752648 -0.000236276 0)
(0.000840806 -0.000206045 0)
(0.000939252 -0.000173143 0)
(3.37627e-07 -7.61173e-06 0)
(3.93855e-06 -1.11174e-05 0)
(1.03222e-05 -3.71667e-05 0)
(1.96188e-05 -7.17791e-05 0)
(3.17012e-05 -0.000107454 0)
(4.64858e-05 -0.000142313 0)
(6.39051e-05 -0.000175789 0)
(8.39127e-05 -0.000207511 0)
(0.000106486 -0.000237167 0)
(0.000131629 -0.000264489 0)
(0.000159367 -0.000289246 0)
(0.000189758 -0.000311225 0)
(0.000222893 -0.000330224 0)
(0.000258899 -0.000346046 0)
(0.000297954 -0.000358492 0)
(0.000340288 -0.000367369 0)
(0.000386201 -0.000372491 0)
(0.00043607 -0.000373694 0)
(0.000490365 -0.00037085 0)
(0.000549659 -0.000363903 0)
(0.000614635 -0.000352897 0)
(0.000686083 -0.000338038 0)
(0.000764882 -0.000319743 0)
(0.000851955 -0.000298709 0)
(0.000948202 -0.000275973 0)
(3.38166e-07 -9.67465e-06 0)
(4.08817e-06 -1.62999e-05 0)
(1.07232e-05 -4.51918e-05 0)
(2.03106e-05 -8.2627e-05 0)
(3.27025e-05 -0.000121065 0)
(4.78116e-05 -0.000158608 0)
(6.55713e-05 -0.000194707 0)
(8.59355e-05 -0.00022902 0)
(0.000108882 -0.000261257 0)
(0.000134415 -0.000291176 0)
(0.000162561 -0.000318572 0)
(0.000193381 -0.000343264 0)
(0.000226962 -0.000365087 0)
(0.000263434 -0.000383884 0)
(0.000302966 -0.000399508 0)
(0.000345781 -0.000411822 0)
(0.000392159 -0.000420709 0)
(0.000442446 -0.000426081 0)
(0.000497063 -0.000427901 0)
(0.000556512 -0.0004262 0)
(0.000621373 -0.000421117 0)
(0.000692298 -0.000412929 0)
(0.000769991 -0.000402102 0)
(0.000855166 -0.000389328 0)
(0.000948495 -0.000375561 0)
(3.371e-07 -1.17933e-05 0)
(4.2107e-06 -2.1676e-05 0)
(1.10515e-05 -5.34626e-05 0)
(2.0867e-05 -9.37393e-05 0)
(3.34918e-05 -0.00013495 0)
(4.88344e-05 -0.000175184 0)
(6.68288e-05 -0.000213917 0)
(8.74282e-05 -0.000250828 0)
(0.000110609 -0.000285653 0)
(0.000136374 -0.000318175 0)
(0.00016475 -0.000348217 0)
(0.000195793 -0.000375629 0)
(0.000229589 -0.000400277 0)
(0.00026626 -0.000422046 0)
(0.000305966 -0.000440832 0)
(0.000348911 -0.00045655 0)
(0.00039535 -0.00046914 0)
(0.000445594 -0.00047858 0)
(0.000500011 -0.000484896 0)
(0.00055903 -0.00048819 0)
(0.000623137 -0.000488661 0)
(0.00069286 -0.000486634 0)
(0.000768756 -0.000482592 0)
(0.00085137 -0.0004772 0)
(0.000941195 -0.000471332 0)
(3.34276e-07 -1.39543e-05 0)
(4.3067e-06 -2.72076e-05 0)
(1.13085e-05 -6.19265e-05 0)
(2.12918e-05 -0.000105049 0)
(3.40758e-05 -0.000149026 0)
(4.95654e-05 -0.000191947 0)
(6.76939e-05 -0.000233305 0)
(8.8412e-05 -0.000272806 0)
(0.000111695 -0.000310208 0)
(0.000137542 -0.000345322 0)