/*--------------------------------*- C++ -*----------------------------------*\
  =========                 |
  \\      /  F ield         | OpenFOAM: The Open Source CFD Toolbox
   \\    /   O peration     | Website:  https://openfoam.org
    \\  /    A nd           | Version:  13
     \\/     M anipulation  |
\*---------------------------------------------------------------------------*/
FoamFile
{
    format      ascii;
    class       volVectorField;
    location    "18";
    object      U;
}
// * * * * * * * * * * * * * * * * * * * * * * * * * * * * * * * * * * * * * //

dimensions      [0 1 -1 0 0 0 0];

internalField   nonuniform List<vector> 
6440
(
(-0.0609508 0.0348184 0)
(-0.116914 0.0096058 0)
(-0.0720266 -0.0382283 -8.75428e-16)
(0.0325427 -0.110303 7.55691e-16)
(0.165515 -0.14783 0)
(0.312042 -0.154757 -6.36437e-16)
(0.47847 -0.143267 4.86715e-16)
(0.625021 -0.120575 0)
(0.742802 -0.0938699 0)
(0.830893 -0.066308 0)
(0.888843 -0.038886 6.44545e-16)
(0.916762 -0.0115353 -1.27285e-15)
(0.914876 0.015765 6.36647e-16)
(0.883389 0.0439625 0)
(0.822468 0.0732071 -1.34744e-15)
(0.731283 0.103067 1.45252e-15)
(0.608736 0.131463 0)
(0.453731 0.151779 0)
(0.267623 0.151769 0)
(0.0729797 0.115192 0)
(-0.0892023 0.0290959 -6.30168e-15)
(-0.144611 -0.0499274 1.54302e-14)
(-0.165987 -0.0873964 -6.86368e-15)
(-0.157304 -0.129371 -6.5477e-15)
(-0.0692131 -0.118759 7.01049e-15)
(-0.0544017 0.108237 0)
(-0.0507962 0.0615812 0)
(0.107187 -0.159912 -5.06546e-16)
(0.273953 -0.326863 2.81293e-16)
(0.437163 -0.396193 0)
(0.588504 -0.391891 -3.48254e-16)
(0.723509 -0.347067 6.23566e-16)
(0.840554 -0.283131 -2.90458e-16)
(0.938156 -0.213452 0)
(1.01456 -0.144167 0)
(1.06948 -0.0777535 0)
(1.10255 -0.0141445 -5.43745e-16)
(1.10347 0.0471022 5.44424e-16)
(1.08146 0.106232 5.37383e-16)
(1.04101 0.163019 -5.40094e-16)
(0.981389 0.217207 0)
(0.899164 0.267929 0)
(0.795824 0.311824 0)
(0.667015 0.340595 0)
(0.502005 0.337595 0)
(0.307601 0.27855 -2.06522e-15)
(0.109842 0.153928 3.23258e-15)
(-0.0698109 -0.0251759 0)
(-0.145886 -0.184025 -9.23349e-15)
(-0.0837758 -0.232746 1.14529e-14)
(-0.0259999 0.111443 0)
(0.0906416 -0.0723441 0)
(0.284061 -0.399387 0)
(0.463853 -0.580023 0)
(0.612974 -0.616815 0)
(0.7363 -0.571948 0)
(0.841001 -0.490329 2.5552e-16)
(0.930625 -0.395313 -2.49929e-16)
(1.00519 -0.29735 0)
(1.06273 -0.200308 0)
(1.10087 -0.105542 0)
(1.11801 -0.0133152 0)
(1.11192 0.0758428 0)
(1.08917 0.160916 5.25389e-16)
(1.04604 0.240709 -1.56836e-15)
(0.989571 0.314789 1.05552e-15)
(0.922621 0.383252 0)
(0.847656 0.444719 0)
(0.765038 0.493872 0)
(0.66711 0.518221 0)
(0.539444 0.49589 0)
(0.369698 0.400724 0)
(0.155908 0.212584 2.93813e-15)
(-0.0618288 -0.0599803 -6.96722e-15)
(-0.102539 -0.275183 5.23779e-15)
(0.0127836 0.0800967 0)
(0.207278 -0.33205 0)
(0.410727 -0.680953 -1.64025e-16)
(0.571039 -0.803342 1.33415e-16)
(0.692743 -0.783982 0)
(0.793715 -0.702254 -2.34673e-16)
(0.884252 -0.596386 2.30632e-16)
(0.965763 -0.480579 0)
(1.03505 -0.359573 4.64254e-16)
(1.08754 -0.235302 -4.77492e-16)
(1.11899 -0.109265 5.00905e-16)
(1.12735 0.0165325 -1.07658e-15)
(1.11029 0.137183 5.29409e-16)
(1.07288 0.248915 0)
(1.01588 0.347439 0)
(0.945169 0.431897 0)
(0.869005 0.504298 1.07434e-15)
(0.793431 0.566852 8.73004e-19)
(0.721258 0.61852 -1.16919e-15)
(0.649526 0.65159 0)
(0.564678 0.648528 0)
(0.44449 0.579899 1.60362e-15)
(0.258826 0.408555 -2.19427e-15)
(0.00166153 0.0808028 -4.80188e-15)
(-0.162127 -0.331365 1.03447e-14)
(0.0725526 -0.0752499 0)
(0.287677 -0.64925 0)
(0.466823 -0.929437 -1.32035e-16)
(0.597554 -0.971738 1.17033e-16)
(0.702603 -0.911283 0)
(0.800193 -0.812254 -2.16724e-16)
(0.894167 -0.694087 2.1451e-16)
(0.980385 -0.561315 0)
(1.05243 -0.416131 4.40161e-16)
(1.10418 -0.261621 -4.61128e-16)
(1.12951 -0.101995 4.96626e-16)
(1.12683 0.0586238 -1.08395e-15)
(1.09645 0.212003 5.19991e-16)
(1.03676 0.35219 0)
(0.958041 0.471126 1.02117e-15)
(0.86839 0.565697 -1.04336e-15)
(0.777879 0.637723 1.08678e-15)
(0.692404 0.692095 1.07136e-18)
(0.615071 0.732592 -1.21695e-15)
(0.54601 0.757286 0)
(0.477005 0.754272 1.42159e-15)
(0.38698 0.694906 9.86234e-19)
(0.235565 0.531104 -2.09878e-15)
(-0.00730697 0.172132 -3.87814e-15)
(-0.245799 -0.387382 5.1731e-15)
(0.116439 -0.406433 0)
(0.310395 -0.959829 0)
(0.454767 -1.12438 -1.1774e-16)
(0.566578 -1.10944 1.09e-16)
(0.670294 -1.03272 0)
(0.775095 -0.927039 -2.04164e-16)
(0.877663 -0.796303 2.02668e-16)
(0.970187 -0.640295 0)
(1.04426 -0.461538 4.26152e-16)
(1.09204 -0.266372 -4.57654e-16)
(1.11413 -0.0640281 5.11443e-16)
(1.09546 0.134414 -1.09322e-15)
(1.04618 0.318049 5.17698e-16)
(0.965015 0.480147 0)
(0.860051 0.613335 -1.02929e-15)
(0.74789 0.714134 1.06509e-15)
(0.642138 0.782992 1.12784e-15)
(0.547512 0.824507 1.40368e-18)
(0.463987 0.845578 -1.31523e-15)
(0.392724 0.849954 0)
(0.32948 0.830346 -1.58528e-15)
(0.259282 0.757123 3.61412e-15)
(0.129178 0.58241 -2.16082e-15)
(-0.0997623 0.176682 -3.96509e-15)
(-0.273761 -0.364678 5.17262e-15)
(0.122684 -0.760515 0)
(0.28271 -1.20305 0)
(0.398354 -1.2834 -1.10948e-16)
(0.499461 -1.24355 1.04554e-16)
(0.603491 -1.16271 0)
(0.711631 -1.05059 -1.96288e-16)
(0.817344 -0.903126 1.96237e-16)
(0.910788 -0.718004 0)
(0.980551 -0.497837 4.30839e-16)
(1.01704 -0.251807 -4.82914e-16)
(1.01584 0.0079369 5.74677e-16)
(0.98132 0.254655 -1.15382e-15)
(0.914249 0.470325 5.42342e-16)
(0.814478 0.646704 0)
(0.692594 0.781905 0)
(0.566605 0.876409 0)
(0.451979 0.932371 1.22843e-15)
(0.353005 0.954512 1.9267e-18)
(0.267187 0.94969 -1.49986e-15)
(0.197476 0.924596 0)
(0.142678 0.878101 0)
(0.0832087 0.781123 1.50217e-15)
(-0.0492809 0.546859 -1.82401e-15)
(-0.266431 0.0254924 -4.45693e-15)
(-0.265194 -0.333456 5.46005e-15)
(0.104723 -1.05557 0)
(0.229538 -1.39127 0)
(0.315031 -1.42179 -1.08106e-16)
(0.399397 -1.37281 1.0299e-16)
(0.491459 -1.2889 0)
(0.58799 -1.16533 -1.95929e-16)
(0.681926 -0.994332 1.99228e-16)
(0.762578 -0.77375 0)
(0.815722 -0.509033 4.74549e-16)
(0.830065 -0.216447 -5.80267e-16)
(0.794422 0.0935548 7.4501e-16)
(0.731694 0.384768 -1.36107e-15)
(0.648748 0.629334 6.28288e-16)
(0.546286 0.816423 0)
(0.427636 0.95034 0)
(0.307512 1.03368 0)
(0.200113 1.06755 1.37105e-15)
(0.110674 1.06118 2.19354e-18)
(0.0345353 1.02934 -1.18768e-15)
(-0.0267607 0.978185 0)
(-0.0724205 0.899587 0)
(-0.132315 0.734112 1.22691e-15)
(-0.28013 0.330742 -1.78673e-15)
(-0.363598 -0.314558 -4.64777e-15)
(-0.194726 -0.268723 1.19811e-14)
(0.0776552 -1.27818 0)
(0.161671 -1.53181 0)
(0.207755 -1.52803 0)
(0.261325 -1.4717 0)
(0.321813 -1.37574 2.074e-16)
(0.384143 -1.22544 -2.10067e-16)
(0.441079 -1.00913 2.21958e-16)
(0.481894 -0.725656 -2.52869e-16)
(0.493608 -0.38669 6.44019e-16)
(0.469483 -0.0592825 5.79117e-20)
(0.391743 0.248608 1.17498e-18)
(0.308884 0.553755 -1.07615e-15)
(0.241843 0.805386 -9.24469e-16)
(0.167473 0.9778 1.56496e-15)
(0.0793046 1.08837 -1.92356e-15)
(-0.00789116 1.14899 1.09727e-15)
(-0.0883526 1.16022 0)
(-0.158663 1.13197 9.35109e-16)
(-0.218815 1.07947 -9.03527e-16)
(-0.265954 1.00203 9.00095e-16)
(-0.302928 0.863682 1.21707e-18)
(-0.366021 0.53896 6.74007e-19)
(-0.429477 -0.100681 -2.50466e-15)
(-0.272093 -0.379291 0)
(-0.0737389 -0.0929267 -7.72925e-15)
(0.0457085 -1.42132 0)
(0.0816411 -1.60157 0)
(0.0789967 -1.57166 0)
(0.0872331 -1.50277 0)
(0.0987248 -1.38326 -2.35092e-16)
(0.108493 -1.18956 2.52412e-16)
(0.108353 -0.903627 -2.96055e-16)
(0.0874587 -0.528187 4.21684e-16)
(0.0349138 -0.0936567 0)
(-0.0421766 0.236198 -2.18944e-15)
(-0.0873585 0.42803 -9.69432e-19)
(-0.156372 0.675551 8.0785e-16)
(-0.19649 0.906838 0)
(-0.23903 1.06511 -4.95376e-16)
(-0.290426 1.16129 1.31434e-15)
(-0.338771 1.20898 -8.054e-16)
(-0.384988 1.21053 7.68156e-16)
(-0.427799 1.17263 -7.47387e-16)
(-0.467124 1.10094 0)
(-0.496808 0.981954 -7.67326e-16)
(-0.51756 0.716443 1.71215e-15)
(-0.523289 0.145649 -2.54383e-15)
(-0.415982 -0.507499 2.6398e-15)
(-0.218216 -0.35091 0)
(0.0151955 0.0800261 -8.92794e-15)
(0.00906468 -1.47416 0)
(-0.00860018 -1.57296 0)
(-0.0636819 -1.53146 0)
(-0.108637 -1.4521 0)
(-0.151803 -1.31004 2.52083e-16)
(-0.194788 -1.07886 -2.66703e-16)
(-0.241478 -0.748848 2.98079e-16)
(-0.297281 -0.358081 -3.64351e-16)
(-0.378128 -0.00793253 9.68954e-16)
(-0.490671 0.24536 2.07576e-19)
(-0.578092 0.464821 -6.55765e-16)
(-0.61706 0.699855 0)
(-0.608786 0.926813 -4.1995e-16)
(-0.610436 1.08436 7.44489e-16)
(-0.628103 1.17778 -1.0382e-15)
(-0.643104 1.21813 6.59975e-16)
(-0.657362 1.21117 0)
(-0.67296 1.17775 6.44533e-16)
(-0.689349 1.08633 -6.55914e-16)
(-0.69696 0.881049 7.04607e-16)
(-0.678741 0.412631 7.25189e-19)
(-0.58714 -0.332555 -1.69982e-15)
(-0.415186 -0.508902 0)
(-0.298409 -0.380808 0)
(-0.0473804 0.00823482 0)
(-0.0282859 -1.42608 0)
(-0.103938 -1.46135 0)
(-0.210685 -1.41696 1.15936e-16)
(-0.310166 -1.33038 -1.10933e-16)
(-0.404548 -1.17693 0)
(-0.492649 -0.93344 2.21137e-16)
(-0.577359 -0.60218 -4.78661e-16)
(-0.670038 -0.239085 2.78931e-16)
(-0.782987 0.065392 0)
(-0.894433 0.29457 0)
(-0.975622 0.50414 0)
(-0.988582 0.726096 3.80802e-16)
(-0.951784 0.930972 -3.37477e-16)
(-0.924462 1.0801 -3.12637e-16)
(-0.914383 1.16946 -2.98762e-16)
(-0.902026 1.20867 5.79653e-16)
(-0.888011 1.20355 5.77409e-16)
(-0.877393 1.15484 -5.83979e-16)
(-0.865756 1.00993 0)
(-0.834305 0.660535 0)
(-0.741627 -0.00796932 1.0883e-15)
(-0.563388 -0.544225 -1.69609e-15)
(-0.489182 -0.564355 0)
(-0.433852 -0.514813 1.73404e-15)
(-0.15666 -0.206646 -6.95073e-15)
(-0.0650951 -1.25136 0)
(-0.200347 -1.26124 0)
(-0.35958 -1.22265 -1.12731e-16)
(-0.510348 -1.14192 1.04101e-16)
(-0.648465 -0.994631 1.97379e-16)
(-0.769313 -0.760072 -3.92272e-16)
(-0.873571 -0.443002 4.13221e-16)
(-0.974613 -0.0982046 -2.33655e-16)
(-1.08567 0.184901 0)
(-1.19347 0.388855 4.10611e-16)
(-1.26463 0.573175 -3.54032e-16)
(-1.26947 0.759334 -3.18415e-16)
(-1.22898 0.928244 -4.82257e-19)
(-1.18418 1.05988 5.58446e-16)
(-1.1462 1.14461 -8.12289e-16)
(-1.10776 1.17968 5.34393e-16)
(-1.06756 1.1639 0)
(-1.02582 1.0746 0)
(-0.971873 0.826249 0)
(-0.873233 0.286967 8.00645e-16)
(-0.685562 -0.430991 -1.40147e-15)
(-0.564989 -0.565744 0)
(-0.57155 -0.652358 0)
(-0.535232 -0.666638 -1.52644e-15)
(-0.237929 -0.458956 -1.13762e-19)
(-0.102169 -0.959301 0)
(-0.299523 -0.990277 0)
(-0.510756 -0.966945 1.147e-16)
(-0.707047 -0.904337 -1.01962e-16)
(-0.880114 -0.780242 -1.87493e-16)
(-1.02235 -0.576034 3.63134e-16)
(-1.13089 -0.293995 -3.73071e-16)
(-1.21741 0.0221172 2.055e-16)
(-1.30338 0.291782 0)
(-1.39374 0.485537 -3.4538e-16)
(-1.45927 0.642092 3.08939e-16)
(-1.47443 0.783039 2.85406e-16)
(-1.44563 0.910377 -2.69539e-16)
(-1.39131 1.01878 -2.60719e-16)
(-1.32435 1.09319 -2.56913e-16)
(-1.25433 1.11583 5.13398e-16)
(-1.18236 1.06856 5.29051e-16)
(-1.09812 0.903293 -5.67356e-16)
(-0.980238 0.507522 0)
(-0.788383 -0.172975 -1.11375e-15)
(-0.590852 -0.576094 2.80636e-15)
(-0.600245 -0.643082 -1.29663e-15)
(-0.610744 -0.749982 0)
(-0.583252 -0.788203 1.39319e-15)
(-0.277231 -0.662577 -1.88518e-15)
(-0.146597 -0.619698 9.86157e-17)
(-0.405757 -0.671661 7.59216e-17)
(-0.665793 -0.669404 -1.22458e-16)
(-0.902017 -0.633823 2.06805e-16)
(-1.10449 -0.54635 -4.87748e-19)
(-1.2642 -0.390494 -1.73272e-16)
(-1.37499 -0.164643 1.72172e-16)
(-1.44368 0.102801 1.82892e-16)
(-1.49376 0.350894 -3.46196e-16)
(-1.54454 0.54567 3.06143e-16)
(-1.58764 0.693297 -2.82024e-16)
(-1.60775 0.804487 0)
(-1.59571 0.890323 -2.56037e-16)
(-1.54559 0.960066 5.01228e-16)
(-1.45767 1.00792 -2.50142e-16)
(-1.34632 1.00312 5.13058e-16)
(-1.22049 0.9016 -5.45668e-16)
(-1.06763 0.623873 0)
(-0.85874 0.0728978 0)
(-0.614367 -0.522869 1.45927e-15)
(-0.559246 -0.624208 4.9271e-19)
(-0.591542 -0.723755 -1.25352e-15)
(-0.60301 -0.837158 0)
(-0.595455 -0.886885 0)
(-0.285073 -0.803668 -1.58406e-15)
(-0.207877 -0.29891 0)
(-0.526242 -0.336417 0)
(-0.827098 -0.354056 0)
(-1.09617 -0.348171 0)
(-1.32502 -0.303139 0)
(-1.50509 -0.205276 0)
(-1.62783 -0.0510616 0)
(-1.69404 0.14534 0)
(-1.72094 0.351451 2.97573e-16)
(-1.72588 0.538301 -2.73308e-16)
(-1.71932 0.686249 0)
(-1.70475 0.790727 0)
(-1.67809 0.853024 0)
(-1.62372 0.878014 0)
(-1.52145 0.867209 0)
(-1.36748 0.797913 0)
(-1.17085 0.607208 -6.12203e-16)
(-0.927538 0.20846 1.59865e-15)
(-0.655148 -0.340504 -2.58761e-15)
(-0.514042 -0.589165 1.40181e-15)
(-0.503221 -0.680022 1.26392e-15)
(-0.507086 -0.798421 -1.2325e-15)
(-0.532134 -0.901381 -1.22138e-15)
(-0.558539 -0.940096 1.264e-15)
(-0.262477 -0.875678 -1.43112e-15)
(-0.278784 0.0338339 0)
(-0.655153 0.00916938 0)
(-0.982818 -0.0340026 1.40537e-16)
(-1.27538 -0.0553952 -1.1216e-16)
(-1.53142 -0.0451273 0)
(-1.74538 0.00595332 1.65829e-16)
(-1.90674 0.100147 -3.02177e-16)
(-1.99823 0.229938 1.40656e-16)
(-2.03278 0.380297 2.55484e-16)
(-2.0129 0.528067 -2.39691e-16)
(-1.95706 0.657275 -2.32205e-16)
(-1.8722 0.753787 4.61776e-16)
(-1.76897 0.805234 -2.35588e-16)
(-1.64158 0.798348 -2.47578e-16)
(-1.47743 0.726117 -2.6904e-16)
(-1.26237 0.555784 6.1275e-16)
(-0.996151 0.241231 0)
(-0.704485 -0.183495 1.16773e-15)
(-0.496163 -0.487042 -1.46359e-15)
(-0.414954 -0.635268 0)
(-0.36877 -0.755818 1.27467e-15)
(-0.349841 -0.859981 -2.53922e-15)
(-0.376576 -0.925537 1.27511e-15)
(-0.436293 -0.948944 1.31579e-15)
(-0.20084 -0.860564 -2.78622e-15)
(-0.319167 0.376329 1.11378e-16)
(-0.709752 0.350834 7.71006e-17)
(-1.05515 0.277464 -1.24151e-16)
(-1.36121 0.228214 2.08728e-16)
(-1.63222 0.20705 -3.60169e-16)
(-1.86309 0.219737 1.58588e-16)
(-2.04641 0.265813 0)
(-2.17274 0.340385 2.55994e-16)
(-2.21814 0.433026 -2.37573e-16)
(-2.22277 0.527855 -2.25787e-16)
(-2.19701 0.607752 2.19816e-16)
(-2.08548 0.65617 0)
(-1.90755 0.65932 2.30946e-16)
(-1.68158 0.603513 -2.52869e-16)
(-1.40494 0.466294 5.90865e-16)
(-1.08486 0.227194 8.66877e-19)
(-0.752133 -0.089897 -2.03876e-15)
(-0.481171 -0.385725 1.35785e-15)
(-0.317291 -0.600463 -1.36282e-15)
(-0.216338 -0.745098 -1.27094e-18)
(-0.15617 -0.840728 2.81778e-15)
(-0.137437 -0.894496 -1.35586e-15)
(-0.167228 -0.914647 0)
(-0.249736 -0.872543 0)
(-0.087638 -0.736572 0)
(-0.285893 0.779374 0)
(-0.621742 0.671267 0)
(-0.938491 0.571193 0)
(-1.21608 0.496514 0)
(-1.46364 0.448929 0)
(-1.67829 0.430091 0)
(-1.85539 0.436 -1.4566e-16)
(-1.98517 0.459931 1.35063e-16)
(-2.06174 0.491899 2.54714e-16)
(-2.07674 0.51786 -2.46259e-16)
(-2.01708 0.521741 -2.46125e-16)
(-1.87715 0.484474 2.57295e-16)
(-1.66379 0.397186 0)
(-1.38422 0.255266 -3.38765e-16)
(-1.05479 0.0572506 4.09445e-16)
(-0.710778 -0.17934 0)
(-0.407571 -0.418739 0)
(-0.178502 -0.626212 1.48925e-15)
(-0.0258073 -0.773537 -2.93826e-15)
(0.0683835 -0.864031 1.24785e-15)
(0.121995 -0.908466 1.08456e-15)
(0.137011 -0.910945 -2.04607e-15)
(0.10413 -0.874464 1.02503e-15)
(0.0263967 -0.762182 0)
(0.0993932 -0.487024 -1.47906e-15)
(-0.202238 1.07983 0)
(-0.450424 0.935877 0)
(-0.709383 0.811862 1.0919e-16)
(-0.924963 0.708575 -1.0251e-16)
(-1.1143 0.631537 0)
(-1.27211 0.579639 1.80109e-16)
(-1.39363 0.547083 -3.41496e-16)
(-1.47181 0.524621 1.64237e-16)
(-1.49755 0.500445 3.22601e-16)
(-1.46012 0.458856 -3.29148e-16)
(-1.34906 0.386008 0)
(-1.16276 0.262634 4.07565e-16)
(-0.913954 0.0869453 -5.05552e-16)
(-0.640232 -0.125208 -6.22458e-16)
(-0.375046 -0.336891 -7.40092e-16)
(-0.128932 -0.531558 1.72766e-15)
(0.065512 -0.688734 0)
(0.213712 -0.808955 1.12955e-15)
(0.326513 -0.897951 -9.29931e-16)
(0.405878 -0.948321 0)
(0.454604 -0.960682 0)
(0.468846 -0.932268 0)
(0.448708 -0.853688 0)
(0.403931 -0.68301 9.9015e-16)
(0.413493 -0.195965 -3.79836e-15)
(-0.111416 1.25322 0)
(-0.260956 1.14613 0)
(-0.4459 0.998501 0)
(-0.590922 0.871571 0)
(-0.712074 0.767122 0)
(-0.799191 0.684264 0)
(-0.849338 0.614692 0)
(-0.853976 0.545261 0)
(-0.804104 0.460726 0)
(-0.690517 0.343362 0)
(-0.518515 0.182536 0)
(-0.301477 -0.0245937 0)
(-0.0611555 -0.258575 0)
(0.121047 -0.460579 0)
(0.264134 -0.63019 0)
(0.389487 -0.765962 0)
(0.50758 -0.871175 0)
(0.616781 -0.9518 0)
(0.707987 -1.00551 0)
(0.774309 -1.027 0)
(0.811897 -1.01437 0)
(0.825518 -0.969994 0)
(0.831581 -0.880189 0)
(0.860324 -0.732325 0)
(1.04241 -0.467128 0)
(-0.0379839 1.32788 0)
(-0.0942018 1.30792 0)
(-0.204926 1.13034 0)
(-0.288642 0.9796 0)
(-0.351266 0.84396 0)
(-0.380227 0.722812 0)
(-0.368877 0.607747 0)
(-0.30915 0.483362 0)
(-0.191057 0.331789 0)
(-0.00584649 0.134297 0)
(0.227814 -0.105618 0)
(0.458303 -0.315039 0)
(0.606843 -0.478277 0)
(0.680104 -0.623919 0)
(0.745393 -0.763975 0)
(0.827384 -0.880707 0)
(0.917851 -0.966299 0)
(0.998625 -1.02244 0)
(1.061 -1.05396 0)
(1.10412 -1.05498 0)
(1.12894 -1.02936 0)
(1.13871 -0.976156 0)
(1.14633 -0.893017 0)
(1.17181 -0.786419 0)
(1.24708 -0.676731 0)
(0.0165924 1.32598 0)
(0.0404971 1.34787 0)
(0.00300139 1.21096 0)
(-0.0300136 1.04645 0)
(-0.0446228 0.886074 0)
(-0.0270348 0.730466 0)
(0.0325155 0.572346 0)
(0.142915 0.402485 0)
(0.305283 0.213668 0)
(0.50678 0.00592298 0)
(0.713335 -0.209873 0)
(0.891964 -0.42166 0)
(1.00707 -0.615319 0)
(1.07473 -0.777394 0)
(1.13673 -0.903829 0)
(1.20862 -0.994964 0)
(1.27457 -1.0541 0)
(1.32175 -1.08614 0)
(1.35198 -1.09208 0)
(1.37242 -1.07445 0)
(1.38349 -1.0426 0)
(1.3858 -0.98364 0)
(1.3865 -0.905928 0)
(1.39814 -0.817498 0)
(1.42789 -0.732294 0)
(0.0576914 1.26105 0)
(0.145267 1.34603 0)
(0.171806 1.2361 0)
(0.184816 1.07007 0)
(0.212531 0.891372 0)
(0.269895 0.706729 0)
(0.365218 0.51339 0)
(0.501236 0.307307 0)
(0.669565 0.087328 0)
(0.852955 -0.143968 0)
(1.03091 -0.374044 0)
(1.17655 -0.585845 0)
(1.27768 -0.763239 0)
(1.34196 -0.897422 0)
(1.37968 -0.989915 0)
(1.40722 -1.05214 0)
(1.42944 -1.09163 0)
(1.44749 -1.10933 0)
(1.465 -1.10353 0)
(1.48253 -1.08097 0)
(1.4966 -1.0385 0)
(1.50416 -0.977925 0)
(1.50696 -0.904012 0)
(1.5124 -0.823703 0)
(1.52506 -0.7462 0)
(0.0816991 1.14228 0)
(0.21626 1.28938 0)
(0.29679 1.21642 0)
(0.346935 1.05611 0)
(0.399714 0.862329 0)
(0.475925 0.651008 0)
(0.582869 0.424898 0)
(0.717804 0.185626 0)
(0.869861 -0.0631827 0)
(1.03049 -0.307696 0)
(1.18 -0.527248 0)
(1.29125 -0.708796 0)
(1.35903 -0.849204 0)
(1.3857 -0.95234 0)
(1.38078 -1.02778 0)
(1.38092 -1.08186 0)
(1.39193 -1.11604 0)
(1.40764 -1.1287 0)
(1.42751 -1.11578 0)
(1.44986 -1.08712 0)
(1.46922 -1.03831 0)
(1.4846 -0.976031 0)
(1.49552 -0.904107 0)
(1.50709 -0.827762 0)
(1.52123 -0.750734 0)
(0.0834019 0.985784 0)
(0.238462 1.18864 0)
(0.358227 1.15685 0)
(0.440513 1.01318 0)
(0.509242 0.814182 0)
(0.587181 0.583154 0)
(0.684135 0.331304 0)
(0.793664 0.065547 0)
(0.91934 -0.202147 0)
(1.04025 -0.446809 0)
(1.12986 -0.644597 0)
(1.18982 -0.792063 0)
(1.17906 -0.898733 0)
(1.15181 -0.978039 0)
(1.11525 -1.04323 0)
(1.09817 -1.09875 0)
(1.10842 -1.13728 0)
(1.13883 -1.15314 0)
(1.18123 -1.13918 0)
(1.22877 -1.10387 0)
(1.27467 -1.05296 0)
(1.31522 -0.9906 0)
(1.35084 -0.920176 0)
(1.38394 -0.843355 0)
(1.41325 -0.761319 0)
(0.0665521 0.82057 0)
(0.210652 1.05968 0)
(0.342535 1.06319 0)
(0.442435 0.946872 0)
(0.520159 0.758532 0)
(0.592691 0.524882 0)
(0.665086 0.263285 0)
(0.735707 -0.0183307 0)
(0.809085 -0.290909 0)
(0.803311 -0.516591 0)
(0.721725 -0.683334 0)
(0.61022 -0.797441 0)
(0.493482 -0.880652 0)
(0.403407 -0.956972 0)
(0.371305 -1.04582 0)
(0.418246 -1.13754 0)
(0.513236 -1.20193 0)
(0.625416 -1.2239 0)
(0.73872 -1.21306 0)
(0.846924 -1.17498 0)
(0.946009 -1.11946 0)
(1.03398 -1.05236 0)
(1.11084 -0.975339 0)
(1.17647 -0.888215 0)
(1.23056 -0.792722 0)
(0.04519 0.679867 0)
(0.157524 0.925983 0)
(0.269024 0.951776 0)
(0.360608 0.864754 0)
(0.431081 0.698688 0)
(0.483292 0.475224 0)
(0.51294 0.217538 0)
(0.537257 -0.0403063 0)
(0.43 -0.261487 0)
(0.2217 -0.436986 0)
(0.0117413 -0.582095 0)
(-0.103722 -0.694403 0)
(-0.0860904 -0.790903 0)
(-0.0262158 -0.915504 0)
(0.0864781 -1.08317 0)
(0.193736 -1.23536 0)
(0.314048 -1.32935 0)
(0.446518 -1.36132 0)
(0.579028 -1.34584 0)
(0.702923 -1.29981 0)
(0.815738 -1.23482 0)
(0.916333 -1.15584 0)
(1.00479 -1.06486 0)
(1.08184 -0.962865 0)
(1.15601 -0.857685 0)
(0.0280249 0.588741 0)
(0.0970072 0.825489 0)
(0.165468 0.864068 0)
(0.224352 0.79867 0)
(0.277067 0.655413 0)
(0.333284 0.46748 0)
(0.407305 0.271398 0)
(0.269414 0.0856861 0)
(0.0585353 -0.05964 0)
(0.00776114 -0.249098 0)
(-0.00161696 -0.440169 0)
(0.00706529 -0.593258 0)
(0.0336652 -0.72919 0)
(0.0988496 -0.901774 0)
(0.192055 -1.12455 0)
(0.304338 -1.31779 0)
(0.42493 -1.43829 0)
(0.546898 -1.48287 0)
(0.666363 -1.46996 0)
(0.779629 -1.42 0)
(0.884548 -1.34726 0)
(0.981014 -1.25869 0)
(1.07059 -1.16032 0)
(1.1595 -1.05698 0)
(1.26176 -0.964401 0)
(0.00393234 0.56018 0)
(0.0273507 0.776878 0)
(0.0499304 0.822695 0)
(0.0856081 0.775426 0)
(0.139593 0.670154 0)
(0.170996 0.542897 0)
(0.131614 0.426542 0)
(0.0139334 0.323738 0)
(-0.000561713 0.156225 0)
(0.00186519 -0.172081 0)
(0.0684789 -0.430129 0)
(0.144689 -0.597097 0)
(0.191948 -0.720729 0)
(0.247799 -0.904421 0)
(0.326235 -1.15575 0)
(0.424906 -1.38965 0)
(0.53771 -1.53778 0)
(0.657217 -1.59372 0)
(0.776798 -1.58181 0)
(0.891703 -1.52789 0)
(1.0006 -1.4495 0)
(1.10589 -1.35778 0)
(1.21245 -1.26243 0)
(1.33054 -1.17656 0)
(1.47455 -1.11532 0)
(-0.0220249 0.579824 0)
(-0.0419049 0.767507 0)
(-0.0404842 0.820175 0)
(-0.0181688 0.809345 0)
(-0.0274057 0.765708 0)
(-0.0903236 0.701321 0)
(-0.143922 0.604037 0)
(-0.141633 0.431332 0)
(-0.0997699 0.0804139 0)
(-0.0150582 -0.298571 0)
(0.0973479 -0.578638 0)
(0.190217 -0.715315 0)
(0.252303 -0.806858 0)
(0.314447 -0.972444 0)
(0.396616 -1.23175 0)
(0.498211 -1.48955 0)
(0.615888 -1.65549 0)
(0.741463 -1.71692 0)
(0.86726 -1.70243 0)
(0.989817 -1.64357 0)
(1.10977 -1.56228 0)
(1.23174 -1.47311 0)
(1.36281 -1.38955 0)
(1.5111 -1.32472 0)
(1.68063 -1.29007 0)
(-0.0375206 0.625754 0)
(-0.0704016 0.79358 0)
(-0.0902552 0.865118 0)
(-0.133095 0.902322 0)
(-0.220143 0.895562 0)
(-0.291878 0.819097 0)
(-0.288944 0.650722 0)
(-0.237171 0.343984 0)
(-0.16185 -0.10669 0)
(-0.0378662 -0.495264 0)
(0.107014 -0.759557 0)
(0.229275 -0.864061 0)
(0.323726 -0.91819 0)
(0.404803 -1.05597 0)
(0.491223 -1.31806 0)
(0.594913 -1.59431 0)
(0.713905 -1.77549 0)
(0.839456 -1.84264 0)
(0.964989 -1.82798 0)
(1.08913 -1.76783 0)
(1.2146 -1.68808 0)
(1.34617 -1.60638 0)
(1.48875 -1.53594 0)
(1.64381 -1.48623 0)
(1.8057 -1.45998 0)
(-0.0443156 0.687051 0)
(-0.0846581 0.845944 0)
(-0.144289 0.936508 0)
(-0.241365 0.988696 0)
(-0.340392 0.962073 0)
(-0.396774 0.82534 0)
(-0.361525 0.564727 0)
(-0.302421 0.165654 0)
(-0.187737 -0.282343 0)
(-0.0365999 -0.679586 0)
(0.130676 -0.926946 0)
(0.282816 -1.01369 0)
(0.409399 -1.03644 0)
(0.511359 -1.14402 0)
(0.60692 -1.40098 0)
(0.715023 -1.69185 0)
(0.833674 -1.88731 0)
(0.954208 -1.96094 0)
(1.07257 -1.94803 0)
(1.18974 -1.88967 0)
(1.30947 -1.81457 0)
(1.43547 -1.74068 0)
(1.5689 -1.67871 0)
(1.70653 -1.63317 0)
(1.84168 -1.60269 0)
(-0.0475094 0.751395 0)
(-0.102431 0.913242 0)
(-0.188268 1.00532 0)
(-0.29318 1.0359 0)
(-0.36787 0.963578 0)
(-0.40354 0.768531 0)
(-0.374454 0.450737 0)
(-0.301515 0.033289 0)
(-0.162333 -0.430417 0)
(-0.000639953 -0.85451 0)
(0.172149 -1.10303 0)
(0.342741 -1.18305 0)
(0.491747 -1.1816 0)
(0.612472 -1.25983 0)
(0.723103 -1.50256 0)
(0.840078 -1.79643 0)
(0.958188 -1.99707 0)
(1.07012 -2.07147 0)
(1.17558 -2.0575 0)
(1.27834 -1.99975 0)
(1.38275 -1.92811 0)
(1.49146 -1.85903 0)
(1.60421 -1.80029 0)
(1.71858 -1.75421 0)
(1.83212 -1.71997 0)
(-0.0483524 0.805424 0)
(-0.112314 0.979304 0)
(-0.197206 1.05715 0)
(-0.280602 1.05429 0)
(-0.338627 0.93582 0)
(-0.364494 0.701029 0)
(-0.327093 0.36791 0)
(-0.234563 -0.0265799 0)
(-0.0871172 -0.553109 0)
(0.0687 -1.01717 0)
(0.238571 -1.28035 0)
(0.413722 -1.362 0)
(0.571841 -1.34566 0)
(0.706332 -1.40124 0)
(0.834575 -1.62718 0)
(0.962402 -1.91184 0)
(1.07805 -2.1044 0)
(1.17709 -2.17051 0)
(1.26476 -2.1508 0)
(1.34836 -2.09152 0)
(1.43343 -2.02192 0)
(1.52291 -1.95656 0)
(1.61763 -1.90145 0)
(1.71732 -1.8584 0)
(1.82158 -1.82713 0)
(-0.0421108 0.839846 0)
(-0.100017 1.03394 0)
(-0.164491 1.09355 0)
(-0.219028 1.05306 0)
(-0.256166 0.899663 0)
(-0.274744 0.645293 0)
(-0.230104 0.337087 0)
(-0.123557 -0.0137104 0)
(0.024731 -0.648827 0)
(0.167946 -1.15358 0)
(0.329431 -1.44357 0)
(0.496995 -1.53242 0)
(0.651452 -1.51145 0)
(0.794877 -1.55649 0)
(0.940874 -1.76808 0)
(1.07797 -2.03286 0)
(1.18721 -2.20362 0)
(1.26944 -2.25271 0)
(1.33696 -2.22419 0)
(1.40123 -2.16371 0)
(1.46941 -2.09807 0)
(1.54513 -2.03939 0)
(1.62957 -1.99201 0)
(1.72263 -1.95668 0)
(1.82348 -1.93257 0)
(-0.0254899 0.852906 0)
(-0.0642613 1.07087 0)
(-0.100686 1.11335 0)
(-0.122325 1.03953 0)
(-0.137096 0.858099 0)
(-0.151312 0.607209 0)
(-0.115065 0.430949 0)
(0.0113281 -0.0129041 0)
(0.151153 -0.717435 0)
(0.283704 -1.27274 0)
(0.433148 -1.59078 0)
(0.585796 -1.68813 0)
(0.730335 -1.67193 0)
(0.880729 -1.72065 0)
(1.04207 -1.9209 0)
(1.18262 -2.1544 0)
(1.27981 -2.29031 0)
(1.34278 -2.31608 0)
(1.39132 -2.27882 0)
(1.4402 -2.22035 0)
(1.49715 -2.16275 0)
(1.56506 -2.11455 0)
(1.64418 -2.07776 0)
(1.73322 -2.05183 0)
(1.83027 -2.0353 0)
(0.000392631 0.840778 0)
(-0.0099813 1.07686 0)
(-0.0157512 1.1056 0)
(-0.00515377 1.01272 0)
(-5.30663e-05 0.812517 0)
(-0.00972469 0.550045 0)
(0.0244357 0.399139 0)
(0.156283 -0.105249 0)
(0.280083 -0.797683 0)
(0.401034 -1.38441 0)
(0.538077 -1.72398 0)
(0.674341 -1.83032 0)
(0.810109 -1.82833 0)
(0.96863 -1.89233 0)
(1.13869 -2.07962 0)
(1.2719 -2.26918 0)
(1.35032 -2.36056 0)
(1.39382 -2.36145 0)
(1.42752 -2.31897 0)
(1.4667 -2.26714 0)
(1.51761 -2.22112 0)
(1.58134 -2.18524 0)
(1.65647 -2.1594 0)
(1.74087 -2.14224 0)
(1.83242 -2.13242 0)
(0.0315441 0.803601 0)
(0.0558661 1.06163 0)
(0.0796188 1.08205 0)
(0.117749 0.972342 0)
(0.142159 0.751708 0)
(0.147191 0.479959 0)
(0.206503 0.238687 0)
(0.311052 -0.234083 0)
(0.403889 -0.884543 0)
(0.512331 -1.48799 0)
(0.63874 -1.84437 0)
(0.762754 -1.96264 0)
(0.896656 -1.98394 0)
(1.06242 -2.06721 0)
(1.22797 -2.23216 0)
(1.33974 -2.36658 0)
(1.39439 -2.41097 0)
(1.42134 -2.39164 0)
(1.44613 -2.34994 0)
(1.48107 -2.30882 0)
(1.52946 -2.276 0)
(1.59031 -2.25223 0)
(1.66136 -2.23623 0)
(1.74026 -2.2267 0)
(1.82532 -2.22285 0)
(0.0648479 0.738427 0)
(0.126881 1.02998 0)
(0.178812 1.04463 0)
(0.239029 0.924392 0)
(0.282291 0.687038 0)
(0.310981 0.401906 0)
(0.383654 0.103781 0)
(0.451084 -0.332227 0)
(0.512919 -0.958689 0)
(0.615337 -1.58234 0)
(0.737407 -1.95637 0)
(0.856846 -2.09138 0)
(0.993846 -2.14021 0)
(1.15811 -2.23495 0)
(1.30054 -2.36251 0)
(1.37926 -2.4372 0)
(1.41065 -2.44181 0)
(1.42732 -2.41199 0)
(1.44946 -2.37729 0)
(1.48427 -2.34906 0)
(1.53199 -2.32905 0)
(1.59048 -2.31594 0)
(1.65729 -2.30829 0)
(1.73077 -2.30536 0)
(1.80998 -2.3071 0)
(0.0978105 0.640802 0)
(0.198105 0.969854 0)
(0.274856 0.996272 0)
(0.350536 0.869058 0)
(0.407627 0.626211 0)
(0.453721 0.329479 0)
(0.519885 0.0120138 0)
(0.558766 -0.395037 0)
(0.604871 -1.01996 0)
(0.714557 -1.67533 0)
(0.839485 -2.06889 0)
(0.959441 -2.22166 0)
(1.09632 -2.29184 0)
(1.24159 -2.37928 0)
(1.34415 -2.4568 0)
(1.38771 -2.47864 0)
(1.4033 -2.45883 0)
(1.41737 -2.42946 0)
(1.44177 -2.40582 0)
(1.47877 -2.39031 0)
(1.52666 -2.38127 0)
(1.58299 -2.37682 0)
(1.64605 -2.37602 0)
(1.7148 -2.3789 0)
(1.78876 -2.38598 0)
(0.127697 0.499424 0)
(0.265021 0.878415 0)
(0.363114 0.928342 0)
(0.445829 0.805704 0)
(0.506923 0.564487 0)
(0.558442 0.263597 0)
(0.614481 -0.0570753 0)
(0.63261 -0.432379 0)
(0.684614 -1.08481 0)
(0.81463 -1.78134 0)
(0.946147 -2.1888 0)
(1.06438 -2.35036 0)
(1.18733 -2.42458 0)
(1.29532 -2.48406 0)
(1.35346 -2.51088 0)
(1.37103 -2.4979 0)
(1.38146 -2.47115 0)
(1.39893 -2.44999 0)
(1.42807 -2.43822 0)
(1.46788 -2.43342 0)
(1.51585 -2.43283 0)
(1.5701 -2.435 0)
(1.62952 -2.43978 0)
(1.69383 -2.44778 0)
(1.76296 -2.4598 0)
(0.14677 0.292909 0)
(0.321303 0.749315 0)
(0.436335 0.840389 0)
(0.518849 0.731445 0)
(0.575386 0.496421 0)
(0.62489 0.193006 0)
(0.671303 -0.111873 0)
(0.677678 -0.458913 0)
(0.757653 -1.17703 0)
(0.91591 -1.91048 0)
(1.05014 -2.31303 0)
(1.15607 -2.46474 0)
(1.2483 -2.52229 0)
(1.31162 -2.5441 0)
(1.33348 -2.53399 0)
(1.34199 -2.50783 0)
(1.35474 -2.48652 0)
(1.37834 -2.47637 0)
(1.41235 -2.47479 0)
(1.45405 -2.47784 0)
(1.5012 -2.48317 0)
(1.55272 -2.49023 0)
(1.60843 -2.49954 0)
(1.66832 -2.51202 0)
(1.73242 -2.52851 0)
(0.137209 -0.00423747 0)
(0.353459 0.549475 0)
(0.485283 0.722172 0)
(0.564229 0.643918 0)
(0.61041 0.42167 0)
(0.666415 0.119552 0)
(0.692612 -0.145549 0)
(0.695777 -0.500069 0)
(0.827831 -1.31751 0)
(1.01352 -2.06039 0)
(1.13979 -2.42907 0)
(1.21941 -2.5498 0)
(1.2722 -2.57828 0)
(1.29659 -2.56855 0)
(1.301 -2.54208 0)
(1.31012 -2.51908 0)
(1.32984 -2.50846 0)
(1.35952 -2.50839 0)
(1.39641 -2.51403 0)
(1.43791 -2.52203 0)
(1.4828 -2.53124 0)
(1.53101 -2.54197 0)
(1.58267 -2.5551 0)
(1.63808 -2.57155 0)
(1.69735 -2.59204 0)
(0.052076 -0.329076 0)
(0.336153 0.262585 0)
(0.493749 0.564324 0)
(0.572636 0.543914 0)
(0.613206 0.347661 0)
(0.662429 0.0545346 0)
(0.668145 -0.159802 0)
(0.694356 -0.59644 0)
(0.902608 -1.51274 0)
(1.10175 -2.21662 0)
(1.2048 -2.52123 0)
(1.24808 -2.59727 0)
(1.27075 -2.59562 0)
(1.26389 -2.57267 0)
(1.26936 -2.54858 0)
(1.28512 -2.53668 0)
(1.31052 -2.53662 0)
(1.34294 -2.54347 0)
(1.37944 -2.5532 0)
(1.41857 -2.56404 0)
(1.46023 -2.576 0)
(1.50474 -2.58985 0)
(1.55253 -2.60643 0)
(1.60366 -2.62645 0)
(1.65813 -2.65052 0)
(-0.0207292 -0.356554 0)
(0.250884 -0.0316236 0)
(0.446802 0.375033 0)
(0.533682 0.439008 0)
(0.57344 0.280984 0)
(0.60825 0.0206042 0)
(0.580384 -0.172481 0)
(0.699145 -0.788082 0)
(0.984403 -1.75049 0)
(1.17142 -2.36016 0)
(1.23847 -2.57413 0)
(1.24938 -2.60191 0)
(1.24006 -2.59263 0)
(1.23857 -2.57267 0)
(1.24757 -2.5606 0)
(1.26711 -2.56 0)
(1.29419 -2.56716 0)
(1.32552 -2.57779 0)
(1.35927 -2.58973 0)
(1.3951 -2.60267 0)
(1.43339 -2.61719 0)
(1.47452 -2.63401 0)
(1.51858 -2.65376 0)
(1.56563 -2.67698 0)
(1.61563 -2.70414 0)
(-0.0722332 -0.342353 0)
(0.0880244 -0.282622 0)
(0.329074 0.17216 0)
(0.436083 0.333939 0)
(0.482893 0.225369 0)
(0.485876 0.0203666 0)
(0.484578 -0.222966 0)
(0.742979 -1.10857 0)
(1.06441 -2.00069 0)
(1.21163 -2.4677 0)
(1.24119 -2.58808 0)
(1.22743 -2.59445 0)
(1.21709 -2.58685 0)
(1.21711 -2.57753 0)
(1.2292 -2.57721 0)
(1.24999 -2.58468 0)
(1.27577 -2.59602 0)
(1.30429 -2.60892 0)