/*--------------------------------*- C++ -*----------------------------------*\
  =========                 |
  \\      /  F ield         | OpenFOAM: The Open Source CFD Toolbox
   \\    /   O peration     | Website:  https://openfoam.org
    \\  /    A nd           | Version:  13
     \\/     M anipulation  |
\*---------------------------------------------------------------------------*/
FoamFile
{
    format      ascii;
    class       volScalarField;
    location    "25";
    object      p;
}
// * * * * * * * * * * * * * * * * * * * * * * * * * * * * * * * * * * * * * //

dimensions      [0 2 -2 0 0 0 0];

internalField   nonuniform List<scalar> 
6440
(
148.793
148.793
148.808
148.84
148.871
148.876
148.852
148.817
148.789
148.785
148.817
148.886
148.981
149.076
149.142
149.168
149.176
149.181
149.188
149.192
149.195
149.193
149.189
149.184
149.181
148.781
148.782
148.79
148.807
148.811
148.784
148.733
148.679
148.645
148.648
148.69
148.769
148.884
149.017
149.129
149.184
149.193
149.191
149.191
149.192
149.192
149.189
149.184
149.177
149.172
148.769
148.773
148.762
148.724
148.659
148.574
148.483
148.409
148.368
148.374
148.427
148.519
148.65
148.805
148.96
149.078
149.144
149.168
149.178
149.182
149.183
149.181
149.176
149.167
149.16
148.753
148.747
148.677
148.56
148.426
148.288
148.162
148.07
148.025
148.032
148.092
148.207
148.366
148.551
148.741
148.913
149.047
149.125
149.154
149.164
149.169
149.17
149.164
149.153
149.146
148.7
148.652
148.516
148.345
148.16
147.979
147.824
147.718
147.674
147.697
147.78
147.918
148.102
148.318
148.547
148.767
148.957
149.081
149.127
149.142
149.149
149.153
149.148
149.137
149.131
148.585
148.503
148.344
148.143
147.922
147.708
147.535
147.427
147.392
147.429
147.534
147.696
147.906
148.152
148.417
148.676
148.9
149.051
149.104
149.119
149.127
149.134
149.13
149.121
149.116
148.496
148.412
148.249
148.022
147.777
147.554
147.392
147.311
147.3
147.34
147.441
147.604
147.824
148.09
148.377
148.657
148.892
149.041
149.092
149.101
149.108
149.115
149.113
149.107
149.105
148.511
148.417
148.247
148.013
147.759
147.536
147.381
147.307
147.299
147.344
147.453
147.626
147.856
148.131
148.42
148.696
148.923
149.057
149.098
149.095
149.097
149.1
149.099
149.097
149.096
148.629
148.526
148.349
148.112
147.849
147.619
147.462
147.388
147.383
147.437
147.552
147.73
147.963
148.232
148.512
148.771
148.979
149.09
149.114
149.101
149.096
149.093
149.09
149.088
149.087
148.814
148.732
148.56
148.319
148.048
147.803
147.629
147.542
147.529
147.58
147.694
147.871
148.1
148.361
148.628
148.872
149.05
149.126
149.123
149.106
149.094
149.086
149.081
149.08
149.08
149.047
148.975
148.814
148.584
148.319
148.069
147.877
147.765
147.73
147.764
147.869
148.041
148.257
148.502
148.748
148.957
149.089
149.127
149.111
149.092
149.078
149.072
149.071
149.071
149.073
149.233
149.169
149.028
148.827
148.593
148.361
148.165
148.032
147.975
147.985
148.065
148.215
148.41
148.623
148.823
148.978
149.061
149.076
149.065
149.052
149.046
149.05
149.055
149.058
149.064
149.304
149.25
149.134
148.969
148.775
148.575
148.394
148.258
148.185
148.176
148.227
148.337
148.487
148.652
148.805
148.917
148.971
148.984
148.985
148.987
148.998
149.015
149.029
149.032
149.047
149.289
149.242
149.146
149.012
148.851
148.679
148.516
148.381
148.29
148.254
148.276
148.351
148.462
148.589
148.703
148.785
148.832
148.86
148.88
148.901
148.929
148.963
148.984
148.989
149.019
149.227
149.189
149.109
148.996
148.858
148.704
148.55
148.413
148.31
148.253
148.246
148.286
148.36
148.449
148.535
148.605
148.662
148.709
148.749
148.79
148.837
148.886
148.915
148.928
148.987
149.154
149.116
149.047
148.949
148.825
148.681
148.53
148.388
148.271
148.191
148.154
148.156
148.191
148.248
148.315
148.387
148.458
148.524
148.589
148.655
148.724
148.791
148.834
148.861
148.968
149.064
149.028
148.967
148.877
148.759
148.618
148.46
148.309
148.174
148.071
147.999
147.963
147.96
147.99
148.048
148.126
148.215
148.308
148.409
148.509
148.614
148.711
148.782
148.842
149.007
148.95
148.92
148.867
148.78
148.661
148.509
148.343
148.175
148.025
147.892
147.785
147.706
147.666
147.673
147.729
147.821
147.937
148.076
148.224
148.384
148.538
148.691
148.816
148.946
149.176
148.821
148.797
148.748
148.66
148.528
148.365
148.182
147.999
147.824
147.66
147.508
147.383
147.306
147.298
147.359
147.475
147.639
147.837
148.06
148.287
148.517
148.739
148.959
149.198
149.52
148.69
148.668
148.618
148.519
148.372
148.186
147.981
147.774
147.569
147.367
147.168
146.997
146.888
146.868
146.936
147.088
147.311
147.587
147.888
148.194
148.493
148.791
149.1
149.458
149.849
148.565
148.539
148.483
148.372
148.205
147.997
147.768
147.534
147.299
147.056
146.808
146.578
146.421
146.376
146.444
146.628
146.915
147.273
147.657
148.031
148.383
148.717
149.052
149.392
149.704
148.456
148.421
148.354
148.229
148.049
147.82
147.565
147.3
147.031
146.743
146.428
146.119
145.886
145.784
145.826
146.028
146.383
146.84
147.324
147.777
148.184
148.554
148.9
149.221
149.498
148.369
148.324
148.242
148.105
147.908
147.663
147.382
147.085
146.78
146.447
146.068
145.675
145.353
145.186
145.187
145.398
145.818
146.376
146.959
147.486
147.943
148.345
148.703
149.014
149.263
148.315
148.257
148.16
148.004
147.796
147.535
147.233
146.906
146.563
146.189
145.755
145.277
144.873
144.653
144.611
144.813
145.276
145.916
146.582
147.172
147.677
148.111
148.482
148.79
149.034
148.302
148.232
148.118
147.946
147.722
147.45
147.134
146.783
146.409
146.002
145.529
145.008
144.559
144.332
144.27
144.438
144.883
145.538
146.24
146.871
147.413
147.872
148.253
148.562
148.803
148.341
148.261
148.128
147.94
147.705
147.423
147.099
146.735
146.341
145.918
145.446
144.924
144.491
144.289
144.247
144.363
144.719
145.298
145.969
146.611
147.172
147.644
148.029
148.336
148.574
148.439
148.348
148.196
147.999
147.753
147.468
147.144
146.78
146.383
145.961
145.516
145.052
144.671
144.476
144.434
144.494
144.735
145.196
145.799
146.419
146.972
147.439
147.818
148.118
148.35
148.602
148.496
148.326
148.121
147.876
147.591
147.277
146.928
146.546
146.141
145.744
145.343
145.018
144.834
144.769
144.766
144.899
145.236
145.744
146.305
146.822
147.266
147.628
147.914
148.133
148.83
148.705
148.511
148.3
148.056
147.78
147.48
147.156
146.802
146.427
146.056
145.707
145.409
145.221
145.138
145.105
145.166
145.391
145.786
146.265
146.725
147.129
147.463
147.725
147.926
149.103
148.963
148.739
148.51
148.268
148.001
147.715
147.413
147.089
146.745
146.398
146.067
145.79
145.606
145.517
145.475
145.485
145.616
145.901
146.287
146.677
147.03
147.323
147.556
147.73
149.373
149.239
148.992
148.738
148.486
148.222
147.945
147.659
147.361
147.049
146.727
146.426
146.177
146.007
145.913
145.855
145.819
145.871
146.061
146.354
146.671
146.964
147.211
147.403
147.547
149.558
149.479
149.246
148.972
148.704
148.434
148.16
147.883
147.606
147.325
147.046
146.784
146.569
146.409
146.301
146.217
146.139
146.13
146.242
146.454
146.696
146.927
147.121
147.272
147.378
149.622
149.617
149.464
149.209
148.933
148.654
148.375
148.102
147.838
147.587
147.346
147.125
146.934
146.776
146.648
146.537
146.431
146.381
146.433
146.577
146.749
146.914
147.054
147.157
147.224
149.627
149.651
149.608
149.431
149.177
148.899
148.617
148.345
148.089
147.855
147.638
147.436
147.253
147.09
146.949
146.822
146.706
146.634
146.637
146.715
146.823
146.924
147.006
147.061
147.086
149.63
149.65
149.659
149.585
149.407
149.161
148.893
148.628
148.378
148.149
147.935
147.737
147.552
147.385
147.238
147.104
146.982
146.895
146.85
146.863
146.909
146.949
146.975
146.981
146.965
149.623
149.641
149.659
149.63
149.54
149.378
149.165
148.931
148.697
148.47
148.253
148.051
147.863
147.694
147.54
147.398
147.267
147.158
147.066
147.015
146.999
146.983
146.955
146.917
146.86
149.606
149.618
149.633
149.612
149.556
149.473
149.353
149.192
148.999
148.792
148.581
148.377
148.187
148.009
147.842
147.685
147.547
147.409
147.271
147.162
147.089
147.021
146.946
146.864
146.771
149.575
149.579
149.587
149.566
149.516
149.466
149.415
149.343
149.224
149.061
148.872
148.675
148.477
148.287
148.108
147.939
147.796
147.632
147.453
147.297
147.173
147.057
146.942
146.823
146.695
149.524
149.519
149.517
149.492
149.452
149.422
149.407
149.388
149.335
149.229
149.073
148.885
148.688
148.489
148.303
148.134
147.996
147.815
147.603
147.408
147.243
147.09
146.94
146.789
146.631
149.446
149.429
149.412
149.384
149.35
149.341
149.354
149.366
149.352
149.286
149.16
148.994
148.805
148.613
148.427
148.276
148.149
147.95
147.715
147.493
147.299
147.117
146.939
146.761
146.577
149.334
149.306
149.272
149.235
149.209
149.214
149.249
149.284
149.294
149.257
149.165
149.023
148.857
148.68
148.516
148.397
148.254
148.036
147.789
147.554
147.34
147.136
146.937
146.737
146.533
149.181
149.147
149.094
149.051
149.027
149.048
149.1
149.156
149.187
149.174
149.111
149.009
148.873
148.725
148.602
148.489
148.314
148.081
147.829
147.59
147.365
147.147
146.931
146.715
146.495
148.986
148.949
148.882
148.829
148.814
148.85
148.926
149.003
149.054
149.065
149.037
148.97
148.87
148.765
148.666
148.53
148.33
148.087
147.84
147.604
147.374
147.147
146.921
146.695
146.462
148.746
148.711
148.635
148.573
148.557
148.617
148.73
148.836
148.911
148.949
148.95
148.914
148.851
148.777
148.671
148.51
148.296
148.061
147.829
147.599
147.368
147.138
146.907
146.672
146.433
148.471
148.437
148.355
148.275
148.258
148.345
148.507
148.654
148.762
148.826
148.85
148.836
148.797
148.723
148.602
148.432
148.229
148.018
147.8
147.577
147.35
147.12
146.887
146.651
146.406
148.184
148.147
148.051
147.955
147.924
148.041
148.263
148.459
148.601
148.688
148.726
148.727
148.691
148.612
148.49
148.333
148.156
147.963
147.756
147.541
147.321
147.095
146.865
146.627
146.382
147.917
147.87
147.756
147.649
147.598
147.739
148.017
148.258
148.429
148.534
148.586
148.593
148.559
148.484
148.374
148.238
148.078
147.897
147.702
147.497
147.284
147.065
146.838
146.604
146.36
147.715
147.652
147.518
147.418
147.355
147.493
147.797
148.069
148.262
148.383
148.444
148.458
148.429
148.362
148.266
148.143
147.993
147.825
147.642
147.447
147.243
147.031
146.81
146.58
146.341
147.617
147.536
147.388
147.308
147.258
147.364
147.644
147.922
148.125
148.252
148.318
148.334
148.308
148.249
148.161
148.046
147.908
147.751
147.58
147.395
147.2
146.995
146.781
146.558
146.323
147.655
147.564
147.401
147.327
147.311
147.369
147.585
147.842
148.033
148.151
148.213
148.226
148.202
148.146
148.063
147.955
147.827
147.68
147.518
147.343
147.157
146.96
146.754
146.536
146.309
147.83
147.734
147.574
147.491
147.482
147.492
147.63
147.835
147.992
148.087
148.133
148.141
148.113
148.056
147.976
147.874
147.752
147.613
147.46
147.293
147.115
146.926
146.726
146.518
146.297
148.105
148.014
147.861
147.755
147.732
147.702
147.761
147.892
147.997
148.059
148.083
148.075
148.041
147.982
147.901
147.802
147.685
147.552
147.406
147.247
147.076
146.894
146.703
146.5
146.288
148.409
148.337
148.204
148.084
148.031
147.966
147.945
147.995
148.04
148.06
148.055
148.031
147.985
147.921
147.839
147.74
147.626
147.498
147.357
147.205
147.041
146.866
146.681
146.488
146.283
148.653
148.62
148.526
148.415
148.34
148.237
148.141
148.114
148.1
148.077
148.045
148.001
147.944
147.873
147.787
147.688
147.576
147.451
147.315
147.167
147.009
146.842
146.664
146.477
146.281
148.787
148.788
148.747
148.67
148.593
148.459
148.305
148.219
148.158
148.1
148.044
147.983
147.914
147.835
147.746
147.645
147.533
147.411
147.278
147.135
146.983
146.821
146.65
146.471
146.282
148.831
148.839
148.83
148.794
148.738
148.594
148.414
148.294
148.202
148.121
148.046
147.97
147.891
147.805
147.711
147.609
147.497
147.377
147.247
147.108
146.96
146.804
146.64
146.467
146.286
148.827
148.829
148.827
148.82
148.789
148.651
148.475
148.344
148.233
148.135
148.046
147.96
147.872
147.781
147.683
147.579
147.467
147.348
147.221
147.085
146.942
146.792
146.633
146.467
146.293
148.803
148.801
148.8
148.814
148.797
148.661
148.499
148.366
148.247
148.141
148.044
147.95
147.856
147.76
147.66
147.554
147.442
147.324
147.199
147.067
146.928
146.782
146.63
146.47
146.304
148.776
148.771
148.769
148.79
148.775
148.634
148.488
148.365
148.247
148.139
148.037
147.939
147.841
147.742
147.639
147.532
147.421
147.304
147.181
147.052
146.917
146.776
146.629
146.476
146.316
148.751
148.746
148.743
148.756
148.725
148.593
148.464
148.349
148.237
148.129
148.026
147.926
147.826
147.724
147.621
147.514
147.403
147.287
147.167
147.041
146.91
146.773
146.632
146.484
146.331
148.732
148.727
148.728
148.729
148.67
148.553
148.438
148.327
148.219
148.115
148.012
147.911
147.81
147.708
147.604
147.497
147.387
147.273
147.155
147.033
146.905
146.773
146.636
146.495
146.348
148.716
148.713
148.716
148.71
148.616
148.511
148.408
148.302
148.198
148.096
147.995
147.894
147.793
147.692
147.588
147.482
147.374
147.262
147.146
147.026
146.903
146.775
146.643
146.506
146.366
148.703
148.702
148.699
148.673
148.568
148.474
148.375
148.274
148.174
148.075
147.976
147.877
147.777
147.676
147.573
147.469
147.362
147.252
147.139
147.022
146.902
146.779
146.651
146.52
146.386
148.688
148.689
148.679
148.628
148.527
148.437
148.343
148.246
148.15
148.053
147.956
147.858
147.76
147.66
147.559
147.456
147.351
147.243
147.133
147.02
146.903
146.784
146.661
146.535
146.407
148.671
148.674
148.661
148.584
148.495
148.404
148.311
148.218
148.124
148.03
147.935
147.839
147.743
147.645
147.545
147.444
147.341
147.236
147.129
147.019
146.906
146.79
146.672
146.552
146.428
148.65
148.655
148.64
148.541
148.46
148.372
148.28
148.189
148.098
148.006
147.913
147.82
147.725
147.629
147.532
147.433
147.333
147.23
147.125
147.019
146.909
146.798
146.684
146.568
146.45
148.628
148.633
148.604
148.498
148.422
148.338
148.249
148.161
148.072
147.982
147.892
147.8
147.708
147.614
147.519
147.423
147.325
147.225
147.123
147.02
146.914
146.806
146.697
146.586
146.472
148.606
148.611
148.56
148.464
148.384
148.303
148.219
148.133
148.046
147.958
147.87
147.781
147.691
147.6
147.507
147.413
147.317
147.22
147.122
147.021
146.919
146.815
146.71
146.603
146.495
148.585
148.591
148.519
148.44
148.353
148.271
148.189
148.105
148.02
147.935
147.849
147.762
147.674
147.585
147.495
147.403
147.31
147.216
147.121
147.023
146.925
146.825
146.723
146.621
146.517
148.565
148.57
148.479
148.413
148.324
148.24
148.159
148.077
147.994
147.911
147.827
147.743
147.657
147.571
147.483
147.394
147.304
147.213
147.12
147.026
146.931
146.835
146.737
146.638
146.539
148.549
148.548
148.44
148.379
148.294
148.21
148.13
148.05
147.969
147.888
147.807
147.724
147.641
147.557
147.472
147.385
147.298
147.209
147.12
147.029
146.937
146.845
146.751
146.656
146.561
148.535
148.519
148.405
148.344
148.262
148.179
148.101
148.022
147.944
147.865
147.786
147.706
147.625
147.543
147.461
147.377
147.292
147.207
147.12
147.032
146.944
146.855
146.765
146.674
146.583
148.517
148.485
148.375
148.307
148.229
148.149
148.072
147.995
147.919
147.842
147.765
147.687
147.609
147.53
147.45
147.369
147.287
147.204
147.12
147.036
146.951
146.865
146.778
146.691
146.603
148.489
148.445
148.345
148.271
148.194
148.117
148.042
147.968
147.893
147.819
147.745
147.67
147.594
147.517
147.439
147.361
147.282
147.202
147.121
147.039
146.957
146.874
146.791
146.708
146.624
148.453
148.397
148.31
148.232
148.158
148.084
148.012
147.94
147.868
147.796
147.724
147.652
147.578
147.504
147.429
147.353
147.277
147.199
147.121
147.043
146.964
146.884
146.804
146.724
146.644
148.405
148.34
148.266
148.19
148.12
148.05
147.98
147.911
147.842
147.773
147.704
147.634
147.563
147.491
147.419
147.346
147.272
147.197
147.122
147.046
146.97
146.894
146.817
146.74
146.663
148.344
148.277
148.214
148.145
148.079
148.013
147.948
147.882
147.817
147.75
147.684
147.616
147.548
147.479
147.409
147.338
147.267
147.195
147.123
147.05
146.977
146.903
146.829
146.755
146.682
148.273
148.212
148.159
148.097
148.037
147.976
147.915
147.853
147.791
147.727
147.664
147.599
147.533
147.467
147.399
147.331
147.263
147.193
147.124
147.053
146.983
146.912
146.841
146.77
146.7
148.2
148.149
148.103
148.049
147.995
147.938
147.882
147.824
147.765
147.705
147.644
147.582
147.519
147.455
147.39
147.324
147.258
147.192
147.124
147.057
146.989
146.921
146.853
146.785
146.717
148.13
148.088
148.049
148.001
147.952
147.901
147.849
147.794
147.739
147.682
147.624
147.565
147.504
147.443
147.381
147.318
147.254
147.19
147.125
147.06
146.995
146.929
146.864
146.798
146.734
148.065
148.03
147.997
147.954
147.911
147.865
147.816
147.766
147.713
147.66
147.605
147.548
147.49
147.431
147.372
147.311
147.25
147.188
147.126
147.063
147
146.937
146.874
146.812
146.749
148.005
147.976
147.948
147.91
147.872
147.829
147.785
147.738
147.689
147.638
147.586
147.532
147.477
147.42
147.363
147.305
147.246
147.186
147.126
147.066
147.005
146.945
146.884
146.824
146.764
147.95
147.927
147.902
147.869
147.835
147.796
147.755
147.711
147.665
147.617
147.568
147.516
147.464
147.409
147.354
147.298
147.242
147.185
147.127
147.069
147.01
146.952
146.894
146.836
146.779
147.902
147.882
147.861
147.831
147.8
147.764
147.727
147.686
147.643
147.598
147.551
147.502
147.451
147.399
147.346
147.293
147.238
147.183
147.127
147.071
147.015
146.959
146.903
146.847
146.792
147.859
147.841
147.823
147.796
147.769
147.736
147.701
147.663
147.622
147.58
147.535
147.488
147.44
147.39
147.339
147.287
147.235
147.182
147.128
147.074
147.02
146.966
146.912
146.858
146.805
147.82
147.805
147.789
147.765
147.74
147.71
147.678
147.642
147.604
147.563
147.521
147.476
147.43
147.382
147.333
147.283
147.232
147.181
147.129
147.077
147.025
146.973
146.921
146.869
146.818
147.787
147.774
147.76
147.738
147.715
147.687
147.657
147.623
147.587
147.549
147.508
147.465
147.42
147.374
147.327
147.279
147.23
147.181
147.131
147.08
147.03
146.979
146.929
146.879
146.83
147.758
147.746
147.734
147.713
147.693
147.666
147.638
147.606
147.572
147.535
147.496
147.455
147.412
147.368
147.322
147.276
147.228
147.181
147.132
147.083
147.034
146.986
146.937
146.889
146.841
147.732
147.722
147.711
147.692
147.673
147.648
147.621
147.591
147.558
147.523
147.485
147.446
147.405
147.362
147.318
147.273
147.227
147.18
147.133
147.086
147.039
146.991
146.944
146.898
146.851
147.711
147.701
147.691
147.673
147.655
147.631
147.606
147.577
147.546
147.512
147.475
147.437
147.397
147.356
147.313
147.27
147.225
147.18
147.135
147.089
147.043
146.997
146.951
146.906
146.861
147.693
147.684
147.675
147.657
147.64
147.617
147.592
147.565
147.534
147.501
147.466
147.429
147.391
147.351
147.309
147.267
147.224
147.18
147.135
147.091
147.046
147.001
146.957
146.913
146.869
147.679
147.67
147.661
147.644
147.627
147.605
147.581
147.554
147.524
147.492
147.458
147.422
147.385
147.346
147.305
147.264
147.222
147.179
147.136
147.093
147.049
147.005
146.962
146.919
146.876
147.668
147.66
147.651
147.635
147.618
147.596
147.573
147.546
147.517
147.486
147.452
147.417
147.38
147.342
147.303
147.262
147.221
147.18
147.137
147.095
147.052
147.01
146.967
146.925
146.883
147.662
147.654
147.646
147.629
147.612
147.591
147.567
147.541
147.512
147.481
147.448
147.414
147.377
147.34
147.301
147.262
147.221
147.18
147.139
147.097
147.056
147.014
146.972
146.931
146.89
147.661
147.651
147.644
147.627
147.61
147.589
147.565
147.539
147.51
147.479
147.446
147.412
147.376
147.339
147.301
147.262
147.222
147.182
147.141
147.1
147.059
147.018
146.978
146.937
146.897
147.663
147.653
147.645
147.627
147.61
147.588
147.564
147.538
147.509
147.478
147.446
147.412
147.376
147.34
147.302
147.263
147.224
147.184
147.144
147.104
147.063
147.023
146.983
146.943
146.903
147.668
147.657
147.649
147.63
147.611
147.589
147.564
147.538
147.509
147.478
147.445
147.412
147.376
147.34
147.303
147.264
147.225
147.186
147.146
147.106
147.066
147.026
146.987
146.947
146.908
147.679
147.664
147.657
147.635
147.614
147.59
147.564
147.537
147.507
147.477
147.444
147.411
147.376
147.34
147.303
147.265
147.226
147.187
147.148
147.108
147.068
147.029
146.989
146.95
146.911
147.719
147.684
147.668
147.642
147.616
147.59
147.563
147.535
147.506
147.475
147.443
147.409
147.375
147.339
147.302
147.264
147.226
147.187
147.148
147.109
147.069
147.03
146.991
146.952
146.913
147.795
147.715
147.674
147.644
147.616
147.589
147.562
147.534
147.505
147.474
147.442
147.408
147.374
147.338
147.301
147.264
147.226
147.187
147.148
147.109
147.07
147.03
146.991
146.952
146.914
150.151
150.149
150.147
150.144
150.142
150.142
150.141
150.139
150.136
150.132
150.129
150.127
150.126
150.127
150.128
150.124
150.114
150.095
150.066
150.031
149.999
149.985
149.989
149.999
150.005
150.148
150.139
150.134
150.133
150.136
150.139
150.14
150.137
150.13
150.12
150.112
150.106
150.104
150.105
150.106
150.104
150.096
150.077
150.048
150.013
149.983
149.97
149.976
149.991
150.001
150.16
150.147
150.137
150.131
150.129
150.127
150.119
150.107
150.091
150.074
150.061
150.051
150.046
150.045
150.046
150.047
150.045
150.036
150.018
149.992
149.97
149.964
149.971
149.984
149.993
150.188
150.175
150.16
150.145
150.13
150.111
150.088
150.06
150.03
150.002
149.979
149.963
149.953
149.948
149.948
149.951
149.955
149.96
149.962
149.961
149.961
149.967
149.976
149.984
149.988
150.223
150.212
150.195
150.172
150.142
150.104
150.06
150.012
149.965
149.923
149.89
149.864
149.846
149.836
149.831
149.832
149.84
149.853
149.872
149.897
149.927
149.96
149.983
149.989
149.988
150.254
150.246
150.229
150.201
150.159
150.103
150.04
149.973
149.91
149.855
149.808
149.772
149.746
149.727
149.716
149.713
149.718
149.734
149.761
149.802
149.858
149.921
149.972
149.99
149.986
150.278
150.274
150.259
150.229
150.178
150.109
150.029
149.946
149.868
149.801
149.745
149.697
149.657
149.626
149.605
149.594
149.594
149.608
149.638
149.688
149.76
149.848
149.934
149.981
149.983
150.296
150.297
150.288
150.26
150.204
150.124
150.03
149.932
149.84
149.762
149.695
149.635
149.58
149.535
149.502
149.481
149.474
149.484
149.513
149.565
149.645
149.75
149.866
149.954
149.979
150.305
150.311
150.311
150.294
150.238
150.152
150.047
149.935
149.83
149.739
149.662
149.59
149.522
149.462
149.417
149.386
149.371
149.374
149.399
149.449
149.531
149.643
149.773
149.89
149.946
150.304
150.311
150.319
150.319
150.277
150.193
150.083
149.961
149.842
149.739
149.651
149.569
149.492
149.422
149.366
149.328
149.309
149.305
149.321
149.362
149.437
149.547
149.68
149.802
149.873
150.292
150.298
150.31
150.323
150.304
150.235
150.133
150.012
149.885
149.768
149.669
149.579
149.495
149.418
149.356
149.316
149.295
149.289
149.298
149.326
149.385
149.483
149.608
149.722
149.787
150.269
150.275
150.285
150.305
150.308
150.266
150.183
150.072
149.949
149.826
149.717
149.621
149.533
149.453
149.387
149.341
149.316
149.308
149.315
149.337
149.381
149.46
149.567
149.661
149.714
150.236
150.24
150.25
150.273
150.294
150.282
150.225
150.131
150.017
149.897
149.781
149.678
149.587
149.508
149.443
149.395
149.365
149.353
149.357
149.376
149.412
149.472
149.557
149.625
149.664
150.192
150.198
150.207
150.235
150.267
150.28
150.254
150.184
150.083
149.968
149.851
149.741
149.645
149.563
149.497
149.449
149.42
149.409
149.414
149.432
149.461
149.505
149.563
149.609
149.632
150.146
150.153
150.161
150.192
150.235
150.268
150.269
150.225
150.142
150.036
149.922
149.809
149.706
149.618
149.549
149.501
149.474
149.466
149.472
149.49
149.516
149.547
149.578
149.591
149.605
150.108
150.117
150.125
150.156
150.208
150.251
150.269
150.247
150.185
150.095
149.988
149.876
149.77
149.676
149.601
149.55
149.524
149.518
149.526
149.544
149.567
149.586
149.592
149.575
149.58
150.096
150.103
150.111
150.129
150.181
150.229
150.255
150.246
150.201
150.129
150.036
149.931
149.824
149.726
149.646
149.591
149.564
149.56
149.569
149.586
149.607
149.621
149.615
149.582
149.577
150.108
150.122
150.119
150.114
150.147
150.188
150.217
150.219
150.19
150.136
150.06
149.965
149.859
149.757
149.672
149.613
149.584
149.58
149.591
149.612
149.639
149.662
149.67
149.651
149.647
150.115
150.134
150.107
150.078
150.087
150.114
150.138
150.145
150.134
150.103
150.047
149.965
149.862
149.759
149.672
149.607
149.573
149.566
149.583
149.618
149.668
149.728
149.789
149.833
149.866
150.039
150.053
150.021
149.99
149.993
150.015
150.034
150.042
150.038
150.023
149.988
149.923
149.833
149.735
149.644
149.573
149.528
149.516
149.539
149.598
149.695
149.826
149.98
150.135
150.255
149.87
149.898
149.906
149.895
149.901
149.923
149.94
149.945
149.941
149.93
149.907
149.859
149.782
149.683
149.58
149.495
149.439
149.423
149.458
149.553
149.713
149.939
150.213
150.493
150.701
149.65
149.709
149.756
149.775
149.785
149.798
149.807
149.807
149.8
149.786
149.76
149.713
149.64
149.544
149.438
149.342
149.28
149.27
149.329
149.469
149.701
150.02
150.402
150.782
151.046
149.422
149.514
149.586
149.627
149.64
149.647
149.652
149.652
149.644
149.623
149.581
149.513
149.417
149.3
149.176
149.067
148.997
148.988
149.059
149.232
149.517
149.911
150.379
150.846
151.165
149.204
149.315
149.394
149.443
149.463
149.471
149.474
149.468
149.447
149.406
149.341
149.246
149.125
148.984
148.837
148.704
148.609
148.576
148.631
148.795
149.084
149.5
150.013
150.539
150.943
148.978
149.098
149.183
149.237
149.265
149.273
149.267
149.246
149.204
149.138
149.044
148.924
148.777
148.61
148.434
148.264
148.123
148.037
148.033
148.136
148.364
148.723
149.192
149.688
150.066
148.751
148.876
148.962
149.017
149.043
149.043
149.022
148.98
148.914
148.822
148.703
148.554
148.379
148.179
147.963
147.74
147.53
147.355
147.244
147.221
147.306
147.506
147.815
148.169
148.518
148.523
148.645
148.728
148.776
148.794
148.783
148.746
148.684
148.595
148.478
148.329
148.149
147.935
147.689
147.415
147.121
146.814
146.514
146.239
146.009
145.836
145.722
145.654
145.583
145.444
148.296
148.41
148.483
148.521
148.527
148.502
148.447
148.363
148.248
148.101
147.918
147.696
147.433
147.127
146.777
146.387
145.955
145.485
144.98
144.444
143.861
143.209
142.435
141.556
140.442
148.072
148.172
148.232
148.255
148.244
148.2
148.124
148.015
147.871
147.688
147.464
147.194
146.871
146.492
146.05
145.538
144.947
144.258
143.449
142.481
141.273
139.718
137.487
134.477
128.774
147.855
147.935
147.975
147.979
147.948
147.883
147.782
147.645
147.467
147.246
146.977
146.65
146.261
145.796
145.245
144.588
143.802
142.847
141.653
140.126
138.046
135.204
130.563
124.917
106.123
147.644
147.7
147.718
147.699
147.645
147.555
147.427
147.259
147.046
146.783
146.462
146.077
145.612
145.054
144.381
143.562
142.553
141.29
139.654
137.464
134.266
129.559
120.116
104.085
44.4621
147.444
147.472
147.464
147.419
147.34
147.222
147.065
146.864
146.613
146.306
145.934
145.483
144.94
144.281
143.478
142.489
141.251
139.669
137.583
134.748
130.592
124.37
113.511
95.8346
65.9292
147.256
147.253
147.216
147.145
147.037
146.891
146.703
146.468
146.178
145.826
145.399
144.884
144.259
143.499
142.566
141.409
139.948
138.071
135.598
132.254
127.575
120.865
111.136
96.6263
79.0514
147.082
147.047
146.98
146.88
146.744
146.569
146.349
146.079
145.75
145.352
144.872
144.291
143.588
142.73
141.674
140.358
138.696
136.563
133.772
130.057
125.019
118.089
108.575
95.2493
78.1782
146.924
146.857
146.759
146.63
146.465
146.259
146.008
145.703
145.336
144.894
144.362
143.722
142.944
141.995
140.827
139.371
137.535
135.186
132.138
128.126
122.792
115.63
106.048
93.2502
77.0545
146.784
146.683
146.556
146.397
146.203
145.969
145.687
145.349
144.945
144.462
143.885
143.187
142.345
141.317
140.052
138.479
136.498
133.975
130.719
126.475
120.894
113.523
103.851
91.2839
75.6354
146.66
146.528
146.372
146.185
145.964
145.701
145.39
145.022
144.586
144.067
143.446
142.704
141.806
140.714
139.372
137.706
135.615
132.958
129.546
125.116
119.323
111.708
101.764
88.8531
72.8479
146.553
146.392
146.208
145.995
145.748
145.46
145.123
144.728
144.263
143.713
143.061
142.28
141.341
140.201
138.804
137.075
134.909
132.165
128.641
124.079
118.099
110.219
99.8746
86.1419
69.0375
146.461
146.274
146.065
145.829
145.559
145.248
144.889
144.471
143.983
143.409
142.731
141.926
140.959
139.791
138.366
136.606
134.405
131.621
128.039
123.388
117.217
109.04
98.0552
83.0158
64.1078
146.384
146.174
145.943
145.686
145.396
145.066
144.689
144.253
143.748
143.158
142.466
141.646
140.669
139.494
138.067
136.313
134.128
131.367
127.803
123.149
116.804
108.269
95.8353
78.5757
54.9886
146.319
146.09
145.841
145.566
145.26
144.915
144.523
144.075
143.559
142.962
142.263
141.444
140.473
139.313
137.913
136.205
134.091
131.436
128.025
123.558
117.385
108.867
94.9669
75.2267
38.5268
146.265
146.02
145.757
145.468
145.15
144.794
144.393
143.938
143.418
142.819
142.127
141.318
140.368
139.243
137.898
136.273
134.285
131.819
128.699
124.681
119.273
111.892
99.9594
82.5625
34.5152
146.22
145.964
145.689
145.391
145.064
144.701
144.296
143.839
143.321
142.729
142.049
141.264
140.349
139.276
138.008
136.496
134.673
132.453
129.714
126.283
121.899
116.242
108.536
99.1462
80.2709
146.182
145.919
145.637
145.333
145.001
144.635
144.23
143.776
143.265
142.687
142.029
141.275
140.405
139.398
138.222
136.84
135.206
133.258
130.918
128.092
124.653
120.463
115.329
109.271
101.755
146.152
145.884
145.598
145.291
144.958
144.594
144.192
143.746
143.247
142.688
142.057
141.341
140.525
139.591
138.516
137.273
135.831
134.152
132.196
129.917
127.279
124.271
120.947
117.57
114.696
146.127
145.857
145.571
145.265
144.934
144.573
144.179
143.744
143.262
142.726
142.127
141.454
140.696
139.838
138.866
137.761
136.505
135.076
133.458
131.64
129.626
127.454
125.22
123.151
121.612
146.106
145.839
145.555
145.251
144.925
144.572
144.188
143.767
143.305
142.795
142.23
141.603
140.904
140.124
139.252
138.279
137.193
135.986
134.657
133.21
131.672
130.093
128.572
127.276
126.434
146.09
145.826
145.547
145.249
144.93
144.587
144.215
143.811
143.371
142.889
142.36
141.779
141.139
140.434
139.657
138.804
137.87
136.854
135.762
134.611
133.426
132.259
131.187
130.324
129.795
146.078
145.82
145.547
145.256
144.947
144.615
144.258
143.872
143.455
143.002
142.51
141.974
141.391
140.756