/*--------------------------------*- C++ -*----------------------------------*\
  =========                 |
  \\      /  F ield         | OpenFOAM: The Open Source CFD Toolbox
   \\    /   O peration     | Website:  https://openfoam.org
    \\  /    A nd           | Version:  13
     \\/     M anipulation  |
\*---------------------------------------------------------------------------*/
FoamFile
{
    format      ascii;
    class       volScalarField;
    location    "25";
    object      p;
}
// * * * * * * * * * * * * * * * * * * * * * * * * * * * * * * * * * * * * * //

dimensions      [0 2 -2 0 0 0 0];

internalField   nonuniform List<scalar> 
6440
(
0.00126771
0.00126789
0.00126829
0.00126889
0.00126968
0.00127061
0.00127163
0.00127268
0.00127368
0.00127457
0.00127526
0.0012757
0.00127582
0.00127558
0.00127496
0.00127396
0.0012726
0.00127095
0.00126904
0.00126696
0.00126478
0.00126253
0.0012603
0.00125814
0.0012563
0.00126668
0.00126686
0.00126725
0.00126783
0.00126861
0.00126953
0.00127056
0.00127166
0.00127275
0.00127376
0.00127462
0.00127526
0.0012756
0.00127557
0.00127511
0.00127419
0.00127282
0.00127099
0.00126875
0.00126613
0.00126315
0.00125991
0.00125656
0.00125322
0.00125021
0.00126514
0.00126536
0.00126579
0.00126644
0.00126729
0.00126832
0.00126947
0.00127072
0.00127202
0.00127326
0.00127437
0.00127525
0.00127583
0.00127599
0.00127567
0.0012748
0.00127335
0.00127128
0.00126861
0.00126536
0.00126156
0.00125737
0.00125296
0.00124863
0.00124486
0.00126316
0.00126343
0.00126394
0.00126469
0.00126568
0.00126687
0.00126821
0.00126967
0.00127117
0.00127268
0.00127405
0.0012752
0.00127602
0.0012764
0.00127624
0.00127544
0.00127394
0.00127169
0.00126868
0.00126487
0.00126038
0.00125534
0.00124999
0.00124478
0.00124034
0.00126067
0.001261
0.00126159
0.00126246
0.0012636
0.00126496
0.00126651
0.00126819
0.00126995
0.0012717
0.00127336
0.00127479
0.00127589
0.00127653
0.00127658
0.00127595
0.00127451
0.00127222
0.001269
0.00126479
0.00125973
0.00125397
0.00124776
0.00124169
0.00123655
0.00125761
0.001258
0.00125867
0.00125967
0.00126096
0.00126251
0.00126427
0.00126618
0.00126818
0.00127018
0.00127213
0.00127386
0.00127527
0.00127622
0.00127658
0.0012762
0.00127495
0.00127274
0.00126948
0.00126506
0.00125958
0.00125319
0.00124618
0.00123926
0.00123341
0.00125397
0.00125441
0.00125517
0.00125629
0.00125775
0.00125949
0.00126146
0.0012636
0.00126585
0.00126812
0.00127034
0.00127238
0.00127412
0.00127542
0.00127614
0.0012761
0.00127515
0.00127315
0.00127
0.00126555
0.00125977
0.00125284
0.00124508
0.00123732
0.00123076
0.00124973
0.00125022
0.00125107
0.00125233
0.00125395
0.00125588
0.00125807
0.00126045
0.00126295
0.00126549
0.00126799
0.00127033
0.00127241
0.00127408
0.00127519
0.00127556
0.00127501
0.00127334
0.00127041
0.0012661
0.00126016
0.00125281
0.00124436
0.00123576
0.00122849
0.00124491
0.00124544
0.00124638
0.00124777
0.00124955
0.00125169
0.00125411
0.00125674
0.0012595
0.00126231
0.00126508
0.00126773
0.00127014
0.00127218
0.00127369
0.00127451
0.00127441
0.00127318
0.0012706
0.0012665
0.00126067
0.001253
0.00124394
0.00123454
0.00122655
0.0012395
0.00124008
0.00124111
0.00124262
0.00124457
0.00124691
0.00124956
0.00125245
0.00125549
0.00125858
0.00126164
0.0012646
0.00126733
0.00126971
0.00127161
0.00127288
0.00127328
0.00127258
0.00127047
0.00126672
0.0012611
0.00125333
0.00124375
0.00123359
0.00122488
0.00123356
0.00123417
0.00123527
0.00123689
0.00123899
0.00124153
0.00124442
0.00124757
0.0012509
0.0012543
0.00125768
0.00126095
0.00126398
0.00126669
0.00126896
0.00127064
0.00127155
0.00127142
0.00126991
0.00126666
0.00126138
0.00125376
0.00124377
0.00123289
0.00122343
0.0012271
0.00122774
0.00122889
0.0012306
0.00123284
0.00123554
0.00123864
0.00124206
0.00124568
0.00124941
0.00125313
0.00125673
0.00126009
0.00126313
0.00126574
0.00126782
0.0012692
0.00126964
0.0012688
0.00126622
0.00126146
0.00125411
0.00124401
0.00123247
0.00122227
0.0012202
0.00122084
0.00122202
0.00122379
0.00122611
0.00122894
0.00123221
0.00123585
0.00123975
0.0012438
0.00124786
0.00125182
0.00125556
0.00125896
0.00126194
0.00126442
0.00126626
0.00126726
0.0012671
0.00126529
0.00126125
0.00125442
0.00124444
0.00123239
0.0012215
0.00121292
0.00121355
0.00121473
0.0012165
0.00121885
0.00122173
0.0012251
0.00122888
0.00123299
0.00123731
0.00124171
0.00124605
0.00125024
0.00125409
0.00125751
0.00126043
0.00126274
0.00126429
0.0012648
0.00126383
0.00126071
0.00125464
0.001245
0.00123281
0.00122128
0.00120536
0.00120596
0.00120709
0.00120881
0.00121111
0.00121395
0.0012173
0.00122111
0.0012253
0.00122978
0.00123444
0.00123914
0.00124377
0.00124819
0.00125222
0.00125573
0.00125862
0.00126076
0.00126196
0.00126185
0.00125977
0.00125478
0.00124589
0.00123394
0.00122198
0.00119762
0.00119816
0.00119921
0.00120083
0.00120298
0.00120567
0.00120887
0.00121254
0.00121663
0.00122108
0.00122581
0.00123073
0.00123574
0.00124075
0.00124552
0.00124985
0.00125358
0.00125654
0.00125857
0.00125938
0.00125847
0.00125489
0.00124739
0.0012363
0.00122421
0.00118983
0.0011903
0.00119123
0.00119266
0.00119459
0.00119701
0.00119989
0.00120324
0.00120701
0.0012112
0.00121575
0.00122062
0.00122577
0.0012311
0.00123655
0.00124186
0.00124674
0.00125096
0.00125422
0.00125628
0.0012569
0.00125531
0.00125006
0.00124085
0.00122926
0.00118212
0.00118251
0.00118328
0.00118447
0.00118608
0.0011881
0.00119053
0.00119336
0.0011966
0.00120024
0.00120429
0.00120876
0.00121365
0.00121894
0.00122459
0.00123056
0.00123662
0.00124245
0.00124776
0.00125211
0.00125526
0.0012565
0.0012545
0.00124907
0.00123954
0.00117465
0.00117493
0.00117551
0.00117642
0.00117764
0.00117919
0.00118106
0.00118325
0.00118578
0.00118866
0.00119192
0.00119561
0.00119977
0.00120445
0.00120971
0.00121558
0.00122212
0.00122922
0.00123663
0.00124423
0.0012514
0.00125766
0.00126155
0.0012633
0.00125917
0.00116752
0.00116771
0.0011681
0.00116872
0.00116957
0.00117065
0.00117196
0.0011735
0.0011753
0.00117738
0.00117976
0.00118251
0.00118569
0.00118939
0.00119373
0.00119882
0.0012048
0.00121192
0.00122037
0.00123011
0.00124142
0.00125431
0.00126824
0.00128358
0.0012965
0.00116082
0.00116095
0.00116123
0.00116169
0.00116233
0.00116314
0.00116414
0.00116532
0.00116671
0.00116831
0.00117018
0.00117236
0.00117492
0.00117796
0.00118158
0.00118593
0.00119121
0.00119765
0.00120562
0.00121574
0.00122842
0.00124452
0.00126698
0.00130378
0.0013736
0.00115438
0.0011545
0.00115476
0.0011552
0.0011558
0.00115658
0.00115752
0.00115865
0.00115998
0.00116152
0.00116332
0.00116542
0.00116789
0.00117083
0.00117435
0.00117861
0.00118382
0.00119024
0.00119829
0.00120849
0.00122157
0.00123886
0.00126324
0.00129989
0.00135422
0.0011482
0.00114833
0.00114859
0.00114903
0.00114964
0.00115042
0.00115137
0.00115251
0.00115384
0.00115539
0.0011572
0.0011593
0.00116178
0.00116472
0.00116823
0.00117247
0.00117764
0.00118401
0.00119193
0.00120188
0.00121454
0.00123099
0.00125285
0.00128198
0.00131803
0.00114228
0.00114241
0.00114268
0.00114312
0.00114372
0.0011445
0.00114545
0.00114658
0.0011479
0.00114944
0.00115122
0.0011533
0.00115572
0.00115859
0.001162
0.00116609
0.00117103
0.00117705
0.00118445
0.00119356
0.00120487
0.00121894
0.00123638
0.00125722
0.00127966
0.00113662
0.00113675
0.00113702
0.00113745
0.00113804
0.0011388
0.00113972
0.00114081
0.00114209
0.00114357
0.00114527
0.00114724
0.00114954
0.00115223
0.0011554
0.00115918
0.00116368
0.00116909
0.00117559
0.0011834
0.00119275
0.00120381
0.00121657
0.00123041
0.00124364
0.00113122
0.00113135
0.00113161
0.00113202
0.00113258
0.0011333
0.00113418
0.00113521
0.00113641
0.00113778
0.00113936
0.00114117
0.00114326
0.00114569
0.00114852
0.00115185
0.00115576
0.00116035
0.00116574
0.00117201
0.00117921
0.00118725
0.00119584
0.00120426
0.0012112
0.00112608
0.0011262
0.00112644
0.00112683
0.00112735
0.00112802
0.00112883
0.00112977
0.00113086
0.00113211
0.00113352
0.00113512
0.00113695
0.00113905
0.00114146
0.00114425
0.00114745
0.00115114
0.00115532
0.00116
0.0011651
0.00117042
0.00117557
0.00117989
0.0011824
0.00112119
0.00112131
0.00112153
0.00112188
0.00112236
0.00112296
0.00112368
0.00112452
0.00112548
0.00112656
0.00112778
0.00112914
0.00113066
0.00113238
0.00113433
0.00113652
0.00113898
0.00114172
0.0011447
0.00114787
0.00115107
0.00115406
0.00115646
0.0011577
0.00115706
0.00111656
0.00111667
0.00111687
0.00111717
0.00111759
0.00111812
0.00111875
0.00111947
0.00112028
0.00112118
0.00112217
0.00112326
0.00112446
0.00112578
0.00112723
0.00112881
0.00113053
0.00113234
0.00113419
0.00113598
0.00113754
0.00113861
0.00113884
0.00113778
0.00113488
0.00111219
0.00111228
0.00111245
0.00111272
0.00111307
0.00111352
0.00111404
0.00111462
0.00111527
0.00111598
0.00111674
0.00111754
0.0011184
0.00111931
0.00112026
0.00112125
0.00112225
0.0011232
0.00112402
0.00112461
0.00112478
0.00112429
0.00112285
0.00112008
0.00111558
0.00110807
0.00110815
0.00110829
0.00110851
0.00110879
0.00110915
0.00110955
0.00111
0.00111049
0.00111099
0.00111151
0.00111203
0.00111254
0.00111305
0.00111352
0.00111394
0.00111427
0.00111444
0.00111436
0.00111392
0.00111294
0.00111122
0.0011085
0.00110448
0.00109884
0.00110421
0.00110428
0.00110438
0.00110455
0.00110477
0.00110503
0.00110532
0.00110562
0.00110594
0.00110624
0.00110651
0.00110675
0.00110694
0.00110706
0.00110708
0.00110698
0.0011067
0.00110618
0.00110532
0.00110402
0.00110211
0.00109942
0.00109574
0.00109082
0.00108441
0.00110061
0.00110066
0.00110073
0.00110085
0.00110099
0.00110116
0.00110133
0.0011015
0.00110164
0.00110174
0.00110178
0.00110175
0.00110163
0.00110138
0.00110099
0.00110042
0.0010996
0.00109848
0.00109697
0.00109496
0.00109232
0.00108888
0.00108448
0.00107893
0.00107203
0.00109727
0.0010973
0.00109734
0.0010974
0.00109747
0.00109755
0.00109761
0.00109763
0.00109761
0.00109752
0.00109734
0.00109706
0.00109664
0.00109607
0.0010953
0.00109431
0.00109303
0.00109141
0.00108935
0.00108677
0.00108355
0.00107955
0.00107464
0.00106866
0.00106146
0.00109418
0.0010942
0.00109421
0.00109422
0.00109422
0.0010942
0.00109415
0.00109404
0.00109386
0.00109359
0.00109321
0.00109269
0.00109201
0.00109114
0.00109005
0.00108869
0.00108702
0.00108497
0.00108248
0.00107945
0.00107578
0.00107138
0.00106611
0.00105986
0.00105252
0.00109135
0.00109135
0.00109133
0.00109129
0.00109123
0.00109112
0.00109096
0.00109073
0.00109041
0.00108997
0.0010894
0.00108866
0.00108775
0.00108662
0.00108524
0.00108357
0.00108157
0.00107918
0.00107634
0.00107296
0.00106897
0.00106428
0.00105878
0.00105239
0.00104502
0.00108878
0.00108876
0.00108871
0.00108863
0.0010885
0.00108831
0.00108805
0.00108771
0.00108725
0.00108666
0.00108591
0.00108499
0.00108387
0.00108251
0.00108089
0.00107897
0.0010767
0.00107404
0.00107092
0.00106729
0.00106307
0.00105818
0.00105256
0.00104613
0.00103881
0.00108646
0.00108643
0.00108635
0.00108622
0.00108603
0.00108577
0.00108542
0.00108497
0.00108439
0.00108366
0.00108277
0.00108168
0.00108037
0.00107883
0.001077
0.00107487
0.00107239
0.00106952
0.0010662
0.00106238
0.00105801
0.00105302
0.00104735
0.00104095
0.00103375
0.00108439
0.00108434
0.00108424
0.00108407
0.00108383
0.0010835
0.00108307
0.00108251
0.00108183
0.00108098
0.00107995
0.00107872
0.00107727
0.00107556
0.00107357
0.00107127
0.00106863
0.0010656
0.00106214
0.0010582
0.00105374
0.00104871
0.00104306
0.00103674
0.00102972
0.00108256
0.00108251
0.00108238
0.00108217
0.00108188
0.00108149
0.00108098
0.00108035
0.00107956
0.00107861
0.00107747
0.00107612
0.00107454
0.00107271
0.00107059
0.00106816
0.00106539
0.00106225
0.0010587
0.0010547
0.00105021
0.00104519
0.0010396
0.00103342
0.00102661
0.00108097
0.00108091
0.00108076
0.00108052
0.00108018
0.00107974
0.00107917
0.00107846
0.00107759
0.00107655
0.00107532
0.00107387
0.00107219
0.00107025
0.00106803
0.00106551
0.00106266
0.00105945
0.00105585
0.00105183
0.00104735
0.00104238
0.00103691
0.00103089
0.0010243
0.00107962
0.00107955
0.00107938
0.00107911
0.00107874
0.00107824
0.00107762
0.00107684
0.00107591
0.00107479
0.00107348
0.00107195
0.00107019
0.00106818
0.00106589
0.00106331
0.00106041
0.00105716
0.00105355
0.00104954
0.00104511
0.00104023
0.00103489
0.00102906
0.00102273
0.0010785
0.00107842
0.00107823
0.00107794
0.00107753
0.001077
0.00107632
0.0010755
0.0010745
0.00107332
0.00107195
0.00107036
0.00106854
0.00106648
0.00106414
0.00106152
0.0010586
0.00105535
0.00105175
0.00104778
0.00104343
0.00103867
0.00103348
0.00102786
0.00102179
0.0010776
0.00107751
0.00107731
0.001077
0.00107656
0.00107599
0.00107527
0.0010744
0.00107336
0.00107214
0.00107072
0.00106908
0.00106722
0.00106512
0.00106276
0.00106013
0.00105721
0.00105398
0.00105042
0.00104652
0.00104227
0.00103764
0.00103263
0.00102723
0.00102143
0.0010769
0.00107681
0.0010766
0.00107627
0.00107581
0.00107521
0.00107446
0.00107356
0.00107248
0.00107122
0.00106977
0.0010681
0.00106622
0.0010641
0.00106174
0.00105911
0.00105621
0.00105301
0.00104952
0.00104571
0.00104157
0.00103709
0.00103227
0.00102709
0.00102156
0.00107642
0.00107632
0.0010761
0.00107575
0.00107527
0.00107465
0.00107388
0.00107295
0.00107184
0.00107056
0.00106908
0.0010674
0.00106551
0.00106339
0.00106103
0.00105843
0.00105556
0.00105243
0.00104901
0.0010453
0.00104129
0.00103697
0.00103234
0.0010274
0.00102214
0.00107612
0.00107602
0.0010758
0.00107544
0.00107494
0.0010743
0.00107351
0.00107256
0.00107144
0.00107014
0.00106865
0.00106696
0.00106507
0.00106296
0.00106063
0.00105806
0.00105525
0.00105218
0.00104886
0.00104526
0.00104139
0.00103724
0.00103281
0.0010281
0.00102311
0.00107601
0.00107591
0.00107568
0.00107531
0.00107481
0.00107416
0.00107335
0.00107239
0.00107125
0.00106995
0.00106846
0.00106677
0.0010649
0.00106281
0.00106051
0.00105799
0.00105524
0.00105226
0.00104903
0.00104556
0.00104183
0.00103785
0.00103362
0.00102914
0.00102442
0.00107608
0.00107597
0.00107574
0.00107537
0.00107485
0.0010742
0.00107338
0.00107241
0.00107128
0.00106997
0.00106848
0.00106682
0.00106496
0.0010629
0.00106065
0.00105819
0.00105551
0.00105261
0.00104949
0.00104615
0.00104257
0.00103877
0.00103474
0.00103049
0.00102602
0.00107631
0.00107621
0.00107597
0.00107559
0.00107508
0.00107441
0.0010736
0.00107262
0.00107149
0.00107019
0.00106872
0.00106707
0.00106524
0.00106323
0.00106102
0.00105862
0.00105603
0.00105322
0.00105022
0.001047
0.00104358
0.00103996
0.00103613
0.0010321
0.00102788
0.0010767
0.00107659
0.00107635
0.00107598
0.00107546
0.00107479
0.00107398
0.00107301
0.00107188
0.0010706
0.00106914
0.00106752
0.00106573
0.00106376
0.00106161
0.00105928
0.00105677
0.00105407
0.00105118
0.0010481
0.00104483
0.00104138
0.00103774
0.00103393
0.00102995
0.00107723
0.00107712
0.00107688
0.00107651
0.00107599
0.00107533
0.00107452
0.00107356
0.00107244
0.00107117
0.00106974
0.00106816
0.0010664
0.00106449
0.0010624
0.00106015
0.00105772
0.00105512
0.00105235
0.0010494
0.00104629
0.00104301
0.00103956
0.00103596
0.00103222
0.0010779
0.00107779
0.00107755
0.00107718
0.00107666
0.00107601
0.0010752
0.00107425
0.00107316
0.00107191
0.00107051
0.00106895
0.00106725
0.00106538
0.00106337
0.00106119
0.00105885
0.00105636
0.0010537
0.00105089
0.00104793
0.00104482
0.00104156
0.00103816
0.00103464
0.00107869
0.00107858
0.00107835
0.00107798
0.00107747
0.00107682
0.00107602
0.00107509
0.00107401
0.00107279
0.00107142
0.0010699
0.00106824
0.00106644
0.00106449
0.00106239
0.00106014
0.00105775
0.00105522
0.00105254
0.00104973
0.00104678
0.0010437
0.0010405
0.00103719
0.00107959
0.00107949
0.00107926
0.00107889
0.00107839
0.00107775
0.00107697
0.00107605
0.00107499
0.00107379
0.00107246
0.00107099
0.00106938
0.00106764
0.00106575
0.00106374
0.00106158
0.0010593
0.00105688
0.00105433
0.00105166
0.00104887
0.00104597
0.00104296
0.00103985
0.0010806
0.0010805
0.00108027
0.00107991
0.00107942
0.00107879
0.00107802
0.00107712
0.00107609
0.00107492
0.00107362
0.0010722
0.00107064
0.00106896
0.00106714
0.00106521
0.00106315
0.00106096
0.00105866
0.00105624
0.00105371
0.00105108
0.00104834
0.00104551
0.0010426
0.00108171
0.00108161
0.00108138
0.00108103
0.00108054
0.00107993
0.00107918
0.0010783
0.00107729
0.00107615
0.00107489
0.00107351
0.00107201
0.00107039
0.00106865
0.00106679
0.00106482
0.00106274
0.00106055
0.00105826
0.00105586
0.00105337
0.0010508
0.00104814
0.00104542
0.0010829
0.0010828
0.00108258
0.00108223
0.00108176
0.00108116
0.00108042
0.00107957
0.00107858
0.00107748
0.00107626
0.00107493
0.00107348
0.00107191
0.00107025
0.00106847
0.00106659
0.00106461
0.00106253
0.00106035
0.00105809
0.00105575
0.00105332
0.00105083
0.00104828
0.00108416
0.00108407
0.00108386
0.00108352
0.00108305
0.00108246
0.00108175
0.00108092
0.00107996
0.00107889
0.00107771
0.00107642
0.00107503
0.00107353
0.00107193
0.00107023
0.00106844
0.00106655
0.00106458
0.00106252
0.00106039
0.00105818
0.0010559
0.00105357
0.00105118
0.0010855
0.00108541
0.0010852
0.00108487
0.00108442
0.00108384
0.00108315
0.00108234
0.00108141
0.00108038
0.00107924
0.00107799
0.00107665
0.00107521
0.00107368
0.00107206
0.00107035
0.00106856
0.00106669
0.00106475
0.00106273
0.00106065
0.00105852
0.00105633
0.0010541
0.0010869
0.00108681
0.0010866
0.00108628
0.00108584
0.00108528
0.00108461
0.00108382
0.00108292
0.00108192
0.00108082
0.00107962
0.00107833
0.00107696
0.00107549
0.00107395
0.00107232
0.00107062
0.00106885
0.00106702
0.00106512
0.00106316
0.00106116
0.00105911
0.00105703
0.00108834
0.00108826
0.00108806
0.00108775
0.00108732
0.00108678
0.00108612
0.00108536
0.00108449
0.00108352
0.00108246
0.00108131
0.00108007
0.00107875
0.00107735
0.00107588
0.00107434
0.00107273
0.00107105
0.00106932
0.00106753
0.00106569
0.00106381
0.0010619
0.00105996
0.00108983
0.00108975
0.00108956
0.00108926
0.00108884
0.00108831
0.00108768
0.00108694
0.0010861
0.00108517
0.00108414
0.00108304
0.00108185
0.00108059
0.00107925
0.00107785
0.00107638
0.00107486
0.00107327
0.00107164
0.00106995
0.00106823
0.00106647
0.00106469
0.00106288
0.00109136
0.00109128
0.0010911
0.0010908
0.0010904
0.00108989
0.00108927
0.00108856
0.00108774
0.00108684
0.00108586
0.0010848
0.00108366
0.00108245
0.00108118
0.00107985
0.00107846
0.00107701
0.00107551
0.00107397
0.00107239
0.00107077
0.00106912
0.00106746
0.00106577
0.00109291
0.00109284
0.00109266
0.00109238
0.00109198
0.00109149
0.00109089
0.0010902
0.00108942
0.00108855
0.00108761
0.00108659
0.0010855
0.00108434
0.00108313
0.00108186
0.00108054
0.00107917
0.00107776
0.00107631
0.00107482
0.0010733
0.00107176
0.00107021
0.00106864
0.00109449
0.00109442
0.00109425
0.00109397
0.00109359
0.00109311
0.00109254
0.00109187
0.00109111
0.00109028
0.00108937
0.00108839
0.00108735
0.00108625
0.00108509
0.00108389
0.00108263
0.00108134
0.00108
0.00107863
0.00107724
0.00107582
0.00107438
0.00107293
0.00107147
0.00109608
0.00109601
0.00109585
0.00109558
0.00109522
0.00109475
0.0010942
0.00109355
0.00109282
0.00109202
0.00109114
0.00109021
0.00108921
0.00108816
0.00108706
0.00108591
0.00108472
0.0010835
0.00108224
0.00108095
0.00107964
0.00107831
0.00107696
0.00107561
0.00107425
0.00109768
0.00109762
0.00109746
0.0010972
0.00109685
0.0010964
0.00109586
0.00109524
0.00109454
0.00109376
0.00109292
0.00109203
0.00109107
0.00109007
0.00108902
0.00108793
0.0010868
0.00108565
0.00108446
0.00108325
0.00108202
0.00108077
0.00107951
0.00107825
0.00107699
0.00109929
0.00109922
0.00109907
0.00109883
0.00109849
0.00109805
0.00109753
0.00109693
0.00109626
0.00109551
0.0010947
0.00109384
0.00109293
0.00109197
0.00109097
0.00108994
0.00108887
0.00108778
0.00108666
0.00108552
0.00108436
0.00108319
0.00108202
0.00108085
0.00107968
0.00110089
0.00110083
0.00110069
0.00110045
0.00110012
0.0010997
0.0010992
0.00109862
0.00109797
0.00109725
0.00109648
0.00109565
0.00109478
0.00109386
0.00109291
0.00109193
0.00109092
0.00108988
0.00108883
0.00108775
0.00108667
0.00108558
0.00108448
0.00108339
0.00108231
0.00110248
0.00110243
0.00110229
0.00110206
0.00110175
0.00110134
0.00110086
0.0011003
0.00109967
0.00109898
0.00109824
0.00109744
0.00109661
0.00109574
0.00109483
0.0010939
0.00109294
0.00109196
0.00109096
0.00108996
0.00108894
0.00108792
0.0010869
0.00108588
0.00108487
0.00110406
0.00110401
0.00110388
0.00110366
0.00110336
0.00110297
0.0011025
0.00110196
0.00110136
0.00110069
0.00109998
0.00109922
0.00109842
0.00109759
0.00109672
0.00109584
0.00109493
0.001094
0.00109306
0.00109211
0.00109116
0.00109021
0.00108925
0.00108831
0.00108737
0.00110563
0.00110558
0.00110546
0.00110525
0.00110495
0.00110458
0.00110413
0.00110361
0.00110302
0.00110238
0.0011017
0.00110097
0.0011002
0.00109941
0.00109859
0.00109774
0.00109688
0.00109601
0.00109512
0.00109423
0.00109333
0.00109244
0.00109155
0.00109067
0.0010898
0.00110717
0.00110713
0.00110701
0.00110681
0.00110653
0.00110617
0.00110573
0.00110523
0.00110467
0.00110405
0.00110339
0.00110269
0.00110196
0.0011012
0.00110041
0.00109961
0.00109879
0.00109797
0.00109713
0.00109629
0.00109545
0.00109461
0.00109379
0.00109297
0.00109216
0.00110869
0.00110865
0.00110854
0.00110835
0.00110808
0.00110773
0.00110731
0.00110682
0.00110628
0.00110569
0.00110505
0.00110438
0.00110368
0.00110295
0.0011022
0.00110144
0.00110066
0.00109988
0.00109909
0.0010983
0.00109751
0.00109673
0.00109596
0.00109519
0.00109445
0.00111017
0.00111014
0.00111004
0.00110986
0.0011096
0.00110926
0.00110886
0.00110839
0.00110786
0.00110729
0.00110668
0.00110603
0.00110536
0.00110466
0.00110395
0.00110322
0.00110248
0.00110174
0.001101
0.00110025
0.00109951
0.00109878
0.00109806
0.00109735
0.00109666
0.00111163
0.0011116
0.00111151
0.00111133
0.00111108
0.00111076
0.00111037
0.00110992
0.00110941
0.00110886
0.00110827
0.00110765
0.001107
0.00110633
0.00110565
0.00110496
0.00110425
0.00110355
0.00110284
0.00110214
0.00110145
0.00110076
0.00110009
0.00109943
0.00109879
0.00111304
0.00111303
0.00111294
0.00111278
0.00111254
0.00111222
0.00111185
0.00111141
0.00111092
0.00111039
0.00110982
0.00110922
0.00110859
0.00110795
0.0011073
0.00110664
0.00110597
0.0011053
0.00110463
0.00110397
0.00110332
0.00110267
0.00110205
0.00110143
0.00110084
0.00111442
0.00111441
0.00111433
0.00111418
0.00111395
0.00111365
0.00111329
0.00111286
0.00111239
0.00111187
0.00111132
0.00111074
0.00111014
0.00110953
0.0011089
0.00110827
0.00110763
0.00110699
0.00110636
0.00110574
0.00110512
0.00110452
0.00110393
0.00110336
0.00110281
0.00111576
0.00111576
0.00111569
0.00111554
0.00111532
0.00111504
0.00111468
0.00111427
0.00111381
0.00111331
0.00111278
0.00111222
0.00111164
0.00111105
0.00111045
0.00110984
0.00110923
0.00110862
0.00110802
0.00110743
0.00110685
0.00110628
0.00110573
0.0011052
0.0011047
0.00111705
0.00111706
0.001117
0.00111687
0.00111666
0.00111638
0.00111604
0.00111564
0.00111519
0.00111471
0.00111419
0.00111365
0.00111309
0.00111251
0.00111193
0.00111135
0.00111077
0.00111019
0.00110962
0.00110906
0.00110851
0.00110797
0.00110746
0.00110697
0.0011065
0.0011183
0.00111832
0.00111827
0.00111815
0.00111795
0.00111768
0.00111735
0.00111696
0.00111653
0.00111605
0.00111555
0.00111502
0.00111448
0.00111392
0.00111336
0.0011128
0.00111224
0.00111169
0.00111114
0.00111061
0.00111009
0.00110959
0.00110911
0.00110865
0.00110821
0.0011195
0.00111953
0.00111949
0.00111938
0.00111919
0.00111893
0.00111861
0.00111824
0.00111781
0.00111735
0.00111686
0.00111634
0.00111581
0.00111527
0.00111473
0.00111419
0.00111365
0.00111312
0.0011126
0.00111209
0.00111159
0.00111112
0.00111067
0.00111024
0.00110984
0.00112066
0.0011207
0.00112067
0.00112057
0.00112039
0.00112014
0.00111983
0.00111946
0.00111905
0.00111859
0.00111811
0.00111761
0.00111709
0.00111656
0.00111603
0.00111551
0.00111499
0.00111447
0.00111397
0.00111349
0.00111302
0.00111257
0.00111215
0.00111175
0.00111137
0.00112176
0.00112182
0.00112181
0.00112172
0.00112155
0.00112131
0.001121
0.00112064
0.00112023
0.00111978
0.00111931
0.00111881
0.0011183
0.00111779
0.00111727
0.00111676
0.00111625
0.00111576
0.00111528
0.00111481
0.00111437
0.00111394
0.00111354
0.00111316
0.00111281
0.00112282
0.00112289
0.0011229
0.00112283
0.00112267
0.00112243
0.00112213
0.00112177
0.00112136
0.00112092
0.00112045
0.00111996
0.00111946
0.00111895
0.00111844
0.00111794
0.00111745
0.00111697
0.0011165
0.00111606
0.00111563
0.00111522
0.00111484
0.00111449
0.00111417
0.00112384
0.00112393
0.00112396
0.00112389
0.00112374
0.00112351
0.00112321
0.00112285
0.00112245
0.001122
0.00112153
0.00112104
0.00112054
0.00112004
0.00111954
0.00111905
0.00111857
0.0011181
0.00111765
0.00111722
0.00111681
0.00111642
0.00111606
0.00111573
0.00111542
0.00112481
0.00112492
0.00112497
0.00112492
0.00112478
0.00112455
0.00112425
0.00112389
0.00112347
0.00112303
0.00112255
0.00112206
0.00112157
0.00112107
0.00112057
0.00112009
0.00111961
0.00111915
0.00111872
0.0011183
0.0011179
0.00111753
0.00111719
0.00111687
0.00111659
0.00112574
0.00112588
0.00112596
0.00112592
0.00112578
0.00112555
0.00112524
0.00112487
0.00112445
0.001124
0.00112351
0.00112302
0.00112252
0.00112202
0.00112153
0.00112104
0.00112058
0.00112013
0.0011197
0.00111929
0.00111891
0.00111855
0.00111822
0.00111792
0.00111766
0.00112664
0.00112682
0.00112692
0.0011269
0.00112676
0.00112652
0.0011262
0.00112581
0.00112537
0.0011249
0.00112441
0.00112391
0.0011234
0.0011229
0.0011224
0.00112192
0.00112146
0.00112101
0.00112059
0.00112019
0.00111982
0.00111948
0.00111916
0.00111888
0.00111863
0.00112752
0.00112775
0.00112788
0.00112786
0.00112771
0.00112745
0.00112711
0.0011267
0.00112624
0.00112575
0.00112524
0.00112472
0.00112421
0.0011237
0.0011232
0.00112272
0.00112226
0.00112182
0.0011214
0.00112101
0.00112065
0.00112031
0.00112001
0.00111974
0.0011195
0.0011284
0.00112868
0.00112885
0.00112883
0.00112866
0.00112837
0.00112799
0.00112754
0.00112705
0.00112654
0.001126
0.00112547
0.00112494
0.00112442
0.00112391
0.00112343
0.00112297
0.00112253
0.00112212
0.00112174
0.00112138
0.00112106
0.00112076
0.0011205
0.00112028
0.00112932
0.00112966
0.00112987
0.00112983
0.00112961
0.00112926
0.00112883
0.00112834
0.0011278
0.00112725
0.00112669
0.00112613
0.00112558
0.00112505
0.00112454
0.00112406
0.00112359
0.00112316
0.00112275
0.00112237
0.00112202
0.0011217
0.00112142
0.00112117
0.00112096
0.00113033
0.00113074
0.00113096
0.00113087
0.00113057
0.00113014
0.00112963
0.00112907
0.00112848
0.00112789
0.00112729
0.00112671
0.00112614
0.0011256
0.00112508
0.00112459
0.00112413
0.00112369
0.00112329
0.00112291
0.00112257
0.00112226
0.00112198
0.00112174
0.00112153
0.00113155
0.00113201
0.00113219
0.00113198
0.00113155
0.001131
0.00113038
0.00112974
0.00112908
0.00112843
0.0011278
0.00112719
0.00112661
0.00112605
0.00112553
0.00112503
0.00112457
0.00112413
0.00112373
0.00112336
0.00112302
0.00112272
0.00112245
0.00112221
0.00112201
0.00113319
0.00113359
0.00113363
0.0011332
0.00113255
0.00113182
0.00113106
0.00113031
0.00112958
0.00112888
0.00112821
0.00112758
0.00112698
0.00112641
0.00112588
0.00112538
0.00112491
0.00112448
0.00112408
0.00112371
0.00112338
0.00112308
0.00112281
0.00112258
0.00112239
0.0011356
0.00113567
0.00113534
0.00113452
0.00113354
0.00113256
0.00113164
0.00113077
0.00112997
0.00112921
0.00112851
0.00112785
0.00112724
0.00112667
0.00112613
0.00112563
0.00112516
0.00112473
0.00112433
0.00112397
0.00112364
0.00112335
0.00112309
0.00112286
0.00112267
0.00113971
0.00113869
0.00113739
0.00113587
0.00113443
0.00113316
0.00113205
0.00113107
0.0011302
0.00112941
0.00112868
0.00112801
0.00112739
0.00112681
0.00112628
0.00112578
0.00112532
0.00112489
0.00112449
0.00112413
0.00112381
0.00112352
0.00112326
0.00112304
0.00112286
0.00114871
0.00114354
0.00113971
0.00113706
0.00113505
0.00113347
0.0011322
0.00113115
0.00113024
0.00112943
0.0011287
0.00112804
0.00112742
0.00112685
0.00112632
0.00112583
0.00112537
0.00112495
0.00112456
0.0011242
0.00112388
0.0011236
0.00112334
0.00112313
0.00112294
0.00116651
0.00115006
0.00114182
0.00113783
0.00113529
0.00113348
0.00113212
0.00113104
0.00113014
0.00112934
0.00112863
0.00112798
0.00112737
0.00112681
0.00112629
0.00112581
0.00112536
0.00112494
0.00112456
0.00112421
0.00112389
0.0011236
0.00112335
0.00112314
0.00112296
-0.159649
-0.156829
-0.15124
-0.14298
-0.133007
-0.121913
-0.109793
-0.0970655
-0.0841714
-0.0717434
-0.0603104
-0.0500827
-0.0410699
-0.0333073
-0.026889
-0.0218118
-0.0179441
-0.0150804
-0.0129822
-0.0114386
-0.0103049
-0.00946642
-0.00886834
-0.00845578
-0.00820246
-0.138274
-0.134352
-0.126504
-0.1151
-0.101804
-0.0874851
-0.0731629
-0.0598373
-0.0482865
-0.038737
-0.030988
-0.0248471
-0.0201107
-0.0165511
-0.0139379
-0.0120929
-0.0108245
-0.00990706
-0.00927001
-0.00875522
-0.00831226
-0.00795456
-0.0076819
-0.00748933
-0.00737671
-0.10267
-0.0975988
-0.0883581
-0.0758902
-0.0628293
-0.0507902
-0.0405203
-0.0321034
-0.0253153
-0.0199659
-0.0158436
-0.0127279
-0.010479
-0.00895368
-0.00802262
-0.00749705
-0.0071998
-0.00702627
-0.00691349
-0.00680571
-0.00669847
-0.00659685
-0.0065147
-0.00646785
-0.00644802
-0.0706076
-0.0631723
-0.0533426
-0.0428054
-0.0332881
-0.0255497
-0.0197615
-0.0154928
-0.0123375
-0.0100153
-0.00833518
-0.00719083
-0.00647594
-0.00608887
-0.00588595
-0.005789
-0.00574598
-0.00572254
-0.00569945
-0.00567212
-0.00562987
-0.00558678
-0.00555931
-0.00556251
-0.0055771
-0.0453759
-0.0383683
-0.0302824
-0.0227366
-0.0166691
-0.0121846
-0.00924314
-0.00738356
-0.0061895
-0.00546747
-0.00510136
-0.00492658
-0.00484358
-0.0048097
-0.00479849
-0.00479512
-0.00479188
-0.0047829
-0.00476796
-0.00474897
-0.00472903
-0.00471573
-0.00471916
-0.00474518
-0.00477359
-0.028011
-0.0223377
-0.0159547
-0.010543
-0.0066886
-0.00432574
-0.00315561
-0.0026938
-0.00262779
-0.00279969
-0.00305818
-0.00332388
-0.00355088
-0.00372054
-0.00383625
-0.0039076
-0.00394716
-0.00396675
-0.00397552
-0.00397941
-0.00398305
-0.00399261
-0.00401256
-0.00404448
-0.00407405
-0.0165125
-0.0121913
-0.00727775
-0.00337986
-0.000953614
0.000225403
0.000462405
0.000138214
-0.000371431
-0.000935679
-0.00149439
-0.00199308
-0.00240135
-0.00271142
-0.00293322
-0.00308398
-0.00318332
-0.00324859
-0.00329329
-0.00332701
-0.00335576
-0.00338381
-0.00341358
-0.00344545
-0.00347215
-0.00886119
-0.00586526
-0.00241899
0.000250531
0.00176893
0.00233278
0.00223746
0.00174837
0.00101007