/*--------------------------------*- C++ -*----------------------------------*\
  =========                 |
  \\      /  F ield         | OpenFOAM: The Open Source CFD Toolbox
   \\    /   O peration     | Website:  https://openfoam.org
    \\  /    A nd           | Version:  13
     \\/     M anipulation  |
\*---------------------------------------------------------------------------*/
FoamFile
{
    format      ascii;
    class       surfaceScalarField;
    location    "25";
    object      phi;
}
// * * * * * * * * * * * * * * * * * * * * * * * * * * * * * * * * * * * * * //

dimensions      [0 3 -1 0 0 0 0];

internalField   nonuniform List<scalar> 
12590
(
-5.72784e-08
5.77564e-08
-9.81754e-08
4.53371e-08
-5.84312e-08
-4.08339e-08
8.3456e-08
-1.39042e-07
2.67198e-07
-1.8514e-07
4.52012e-07
-1.83697e-07
6.06832e-07
-1.55597e-07
7.1771e-07
-1.10658e-07
7.74193e-07
-5.66321e-08
7.71472e-07
1.42182e-09
7.09458e-07
6.20261e-08
5.86242e-07
1.2053e-07
4.16244e-07
1.70003e-07
2.16114e-07
1.96992e-07
3.02063e-08
1.86322e-07
-9.87174e-08
1.271e-07
-1.54894e-07
5.74165e-08
-1.50324e-07
-5.03529e-09
-1.23784e-07
-2.4994e-08
-8.16383e-08
-4.17684e-08
-2.6503e-08
-5.35958e-08
2.18533e-08
-4.74263e-08
4.28172e-08
-1.91259e-08
3.0424e-08
1.34918e-08
3.07847e-08
-1.34403e-08
7.29463e-08
7.15519e-08
-3.77177e-08
2.646e-07
-2.33638e-07
4.84874e-07
-3.58759e-07
6.88433e-07
-3.88775e-07
8.59231e-07
-3.54254e-07
9.87615e-07
-2.84116e-07
1.07132e-06
-1.94482e-07
1.10777e-06
-9.32415e-08
1.09656e-06
1.1854e-08
1.04363e-06
1.14461e-07
9.49758e-07
2.13209e-07
8.13988e-07
3.05015e-07
6.28872e-07
3.81128e-07
3.93551e-07
4.21275e-07
1.26089e-07
3.9386e-07
-9.04453e-08
2.74181e-07
-1.84996e-07
8.96323e-08
-1.85352e-07
-2.37829e-08
-1.46002e-07
-8.04831e-08
-8.38146e-08
-1.15005e-07
-1.98741e-08
-1.10241e-07
2.21398e-08
-6.08452e-08
2.161e-08
1.61363e-08
5.26217e-08
6.34964e-08
1.09784e-08
2.86949e-07
-2.60335e-07
5.39364e-07
-4.85815e-07
7.50335e-07
-5.69364e-07
9.11817e-07
-5.50186e-07
1.03034e-06
-4.72661e-07
1.10956e-06
-3.63465e-07
1.15122e-06
-2.36376e-07
1.1571e-06
-9.94031e-08
1.12589e-06
4.23324e-08
1.05983e-06
1.80019e-07
9.63007e-07
3.09057e-07
8.40976e-07
4.26373e-07
6.93303e-07
5.27936e-07
5.12631e-07
6.01387e-07
2.87685e-07
6.183e-07
3.07497e-08
5.31012e-07
-1.7523e-07
2.95751e-07
-2.31062e-07
3.27554e-08
-1.91712e-07
-1.19259e-07
-1.25266e-07
-1.8066e-07
-6.32794e-08
-1.71994e-07
-1.16152e-08
-1.10462e-07
9.6539e-09
-4.90124e-09
6.30081e-08
1.63701e-07
-1.51719e-07
4.43377e-07
-5.3944e-07
6.61965e-07
-7.04169e-07
8.14226e-07
-7.2129e-07
9.22377e-07
-6.58293e-07
9.98257e-07
-5.48468e-07
1.04366e-06
-4.09035e-07
1.05872e-06
-2.5176e-07
1.04358e-06
-8.47022e-08
1.00047e-06
8.47809e-08
9.3056e-07
2.49403e-07
8.33873e-07
4.04829e-07
7.15708e-07
5.43883e-07
5.80953e-07
6.61778e-07
4.30378e-07
7.51395e-07
2.55206e-07
7.92959e-07
4.71664e-08
7.38982e-07
-1.58537e-07
5.01773e-07
-2.47294e-07
1.22194e-07
-2.0254e-07
-1.62991e-07
-1.35669e-07
-2.46741e-07
-8.10511e-08
-2.25052e-07
-3.52921e-08
-1.56792e-07
1.09811e-09
-3.85103e-08
6.46006e-08
2.46389e-07
-3.97468e-07
4.72677e-07
-7.6525e-07
6.16871e-07
-8.48077e-07
7.19993e-07
-8.24081e-07
7.97256e-07
-7.35445e-07
8.47698e-07
-5.98696e-07
8.6682e-07
-4.28424e-07
8.55298e-07
-2.40312e-07
8.15102e-07
-4.5038e-08
7.58585e-07
1.40649e-07
6.86966e-07
3.20463e-07
5.96993e-07
4.93905e-07
4.89909e-07
6.50229e-07
3.69801e-07
7.80988e-07
2.41543e-07
8.7907e-07
1.04574e-07
9.29527e-07
-4.37194e-08
8.87411e-07
-1.90201e-07
6.48745e-07
-2.52934e-07
1.85855e-07
-1.8908e-07
-2.255e-07
-1.3151e-07
-3.03146e-07
-8.71573e-08
-2.69211e-07
-4.61571e-08
-1.95024e-07
-8.30349e-09
-7.58833e-08
5.77079e-08
2.33635e-07
-6.3053e-07
3.7548e-07
-9.06579e-07
4.68034e-07
-9.4025e-07
5.40112e-07
-8.95737e-07
5.88735e-07
-7.83697e-07
6.06083e-07
-6.15853e-07
5.90522e-07
-4.12412e-07
5.49186e-07
-1.99563e-07
4.87524e-07
1.62723e-08
4.22884e-07
2.04292e-07
3.54935e-07
3.87942e-07
2.76909e-07
5.70703e-07
1.88869e-07
7.3763e-07
9.24522e-08
8.76324e-07
-6.7274e-09
9.77814e-07
-1.03006e-07
1.02552e-06
-1.95959e-07
9.80627e-07
-2.64923e-07
7.18323e-07
-2.51649e-07
1.73686e-07
-1.70321e-07
-3.05283e-07
-1.28567e-07
-3.43809e-07
-9.10188e-08
-3.04939e-07
-5.50416e-08
-2.31802e-07
-1.46193e-08
-1.1261e-07
4.39556e-08
1.52806e-07
-7.82853e-07
2.22832e-07
-9.76202e-07
2.72872e-07
-9.89787e-07
3.01334e-07
-9.23796e-07
3.07371e-07
-7.89132e-07
2.81898e-07
-5.89911e-07
2.20644e-07
-3.51246e-07
1.30775e-07
-1.1011e-07
6.43958e-08
8.12316e-08
1.55974e-08
2.51861e-07
-3.02399e-08
4.32788e-07
-8.29398e-08
6.22317e-07
-1.4295e-07
7.96979e-07
-2.0961e-07
9.42142e-07
-2.76385e-07
1.04432e-06
-3.27675e-07
1.07651e-06
-3.60965e-07
1.01424e-06
-3.39484e-07
6.97467e-07
-2.23595e-07
5.9053e-08
-1.60401e-07
-3.67034e-07
-1.30404e-07
-3.72633e-07
-9.95118e-08
-3.35828e-07
-6.011e-08
-2.6803e-07
-2.01894e-08
-1.51746e-07
2.58337e-08
5.88675e-08
-8.41589e-07
5.41281e-08
-9.70938e-07
4.06516e-08
-9.76157e-07
1.94247e-08
-9.01877e-07
-1.53285e-08
-7.54287e-07
-6.52689e-08
-5.39503e-07
-1.24899e-07
-2.91912e-07
-1.76469e-07
-5.93305e-08
-2.26046e-07
1.29514e-07
-2.81043e-07
3.06145e-07
-3.39874e-07
4.91114e-07
-3.96019e-07
6.77775e-07
-4.47285e-07
8.47812e-07
-4.91944e-07
9.86254e-07
-5.21969e-07
1.07406e-06
-5.27325e-07
1.08157e-06
-4.9117e-07
9.78389e-07
-3.70002e-07
5.77038e-07
-1.80666e-07
-1.2864e-07
-1.59273e-07
-3.87055e-07
-1.44168e-07
-3.86619e-07
-1.14276e-07
-3.63786e-07
-7.15065e-08
-3.11526e-07
-2.49552e-08
-1.941e-07
1.86599e-09
-3.68723e-08
-8.04708e-07
-1.1598e-07
-8.91637e-07
-1.94205e-07
-8.97847e-07
-2.62611e-07
-8.33237e-07
-3.26287e-07
-6.90527e-07
-3.83322e-07
-4.82364e-07
-4.33084e-07
-2.4261e-07
-4.78594e-07
-1.43901e-08
-5.31103e-07
1.81522e-07
-5.90063e-07
3.646e-07
-6.47553e-07
5.48288e-07
-6.95281e-07
7.2512e-07
-7.29262e-07
8.81469e-07
-7.45018e-07
1.00157e-06
-7.35011e-07
1.06381e-06
-6.89455e-07
1.03584e-06
-5.61357e-07
8.50614e-07
-3.19681e-07
3.36507e-07
-1.66537e-07
-2.79916e-07
-1.83736e-07
-3.68495e-07
-1.82024e-07
-3.87106e-07
-1.48645e-07
-3.97007e-07
-9.51364e-08
-3.61938e-07
-3.9671e-08
-2.4878e-07
-3.58973e-08
-1.31849e-07
-6.72915e-07
-2.74265e-07
-7.49025e-07
-4.10402e-07
-7.61688e-07
-5.31659e-07
-7.11757e-07
-6.30587e-07
-5.9163e-07
-7.0446e-07
-4.08456e-07
-7.5824e-07
-1.88922e-07
-8.03739e-07
3.08571e-08
-8.51726e-07
2.29177e-07
-9.03621e-07
4.16374e-07
-9.50189e-07
5.94823e-07
-9.82457e-07
7.57123e-07
-9.93351e-07
8.92176e-07
-9.75256e-07
9.83194e-07
-9.16241e-07
1.00472e-06
-7.91286e-07
9.109e-07
-5.53129e-07
6.12924e-07
-2.68474e-07
5.31384e-08
-2.45069e-07
-3.01548e-07
-2.67029e-07
-3.45266e-07
-2.48938e-07
-4.042e-07
-2.02333e-07
-4.42027e-07
-1.38623e-07
-4.26163e-07
-6.19472e-08
-3.2187e-07
-9.71712e-08
-1.93197e-07
-4.7967e-07
-3.9597e-07
-5.46143e-07
-5.90353e-07
-5.67217e-07
-7.63594e-07
-5.38392e-07
-9.05918e-07
-4.49191e-07
-1.01195e-06
-3.02258e-07
-1.08642e-06
-1.14509e-07
-1.14074e-06
8.52117e-08
-1.18616e-06
2.74731e-07
-1.22635e-06
4.56567e-07
-1.25329e-06
6.21857e-07
-1.25653e-06
7.60338e-07
-1.22771e-06
8.63326e-07
-1.1541e-06
9.09559e-07
-1.01554e-06
8.66345e-07
-7.86892e-07
6.8257e-07
-4.86746e-07
3.13541e-07
-3.24064e-07
-1.08107e-07
-3.65103e-07
-2.59063e-07
-3.61004e-07
-3.48178e-07
-3.2418e-07
-4.399e-07
-2.67622e-07
-4.98236e-07
-1.87625e-07
-5.03344e-07
-9.14856e-08
-4.17561e-07
-1.86946e-07
-2.23261e-07
-2.5619e-07
-4.65166e-07
-3.04037e-07
-6.97366e-07
-3.34955e-07
-9.11302e-07
-3.24335e-07
-1.09763e-06
-2.62816e-07
-1.24708e-06
-1.52678e-07
-1.3552e-06
-6.17245e-09
-1.42876e-06
1.58943e-07
-1.47531e-06
3.21405e-07
-1.49184e-06
4.73328e-07
-1.48047e-06
6.10768e-07
-1.43812e-06
7.18108e-07
-1.35103e-06
7.76433e-07
-1.2052e-06
7.63988e-07
-9.88528e-07
6.50239e-07
-7.19181e-07
4.13995e-07
-5.05762e-07
1.01474e-07
-4.81701e-07
-1.30418e-07
-4.8396e-07
-2.55311e-07
-4.48097e-07
-3.82691e-07
-3.9673e-07
-4.90027e-07
-3.26047e-07
-5.67176e-07
-2.34843e-07
-5.94735e-07
-1.21038e-07
-5.2813e-07
-3.06856e-07
-2.39601e-07
-1.61669e-08
-4.77251e-07
-6.64047e-08
-7.04812e-07
-1.07419e-07
-9.19009e-07
-1.10185e-07
-1.11112e-06
-7.06637e-08
-1.27115e-06
7.52163e-09
-1.39339e-06
1.16148e-07
-1.47611e-06
2.41906e-07
-1.52659e-06
3.72251e-07
-1.54436e-06
4.91341e-07
-1.51944e-06
5.86195e-07
-1.44652e-06
6.45527e-07
-1.32065e-06
6.51026e-07
-1.14112e-06
5.85101e-07
-9.2776e-07
4.37893e-07
-7.40494e-07
2.28125e-07
-6.54315e-07
1.71382e-08
-6.31045e-07
-1.51756e-07
-5.80135e-07
-3.04614e-07
-5.19661e-07
-4.41531e-07
-4.50577e-07
-5.57735e-07
-3.68007e-07
-6.48969e-07
-2.66485e-07
-6.93748e-07
-1.44254e-07
-6.48811e-07
-4.49815e-07
-2.30889e-07
2.14784e-07
-4.46894e-07
1.49548e-07
-6.48054e-07
9.351e-08
-8.40695e-07
8.23164e-08
-1.01953e-06
1.08028e-07
-1.17642e-06
1.64513e-07
-1.30371e-06
2.43667e-07
-1.39665e-06
3.35174e-07
-1.45094e-06
4.26733e-07
-1.46423e-06
5.05064e-07
-1.43571e-06
5.58009e-07
-1.3628e-06
5.73176e-07
-1.24842e-06
5.37254e-07
-1.10689e-06
4.44642e-07
-9.68714e-07
3.01059e-07
-8.66812e-07
1.28108e-07
-7.98818e-07
-4.86984e-08
-7.26145e-07
-2.2253e-07
-6.46314e-07
-3.82566e-07
-5.63595e-07
-5.2277e-07
-4.766e-07
-6.43228e-07
-3.83393e-07
-7.41011e-07
-2.78354e-07
-7.98023e-07
-1.52811e-07
-7.72358e-07
-6.01389e-07
-2.09862e-07
4.24438e-07
-3.9777e-07
3.36943e-07
-5.72144e-07
2.67468e-07
-7.40817e-07
2.50545e-07
-9.0167e-07
2.68839e-07
-1.04931e-06
3.12281e-07
-1.17637e-06
3.70945e-07
-1.2763e-06
4.35356e-07
-1.34336e-06
4.9424e-07
-1.37472e-06
5.36558e-07
-1.36801e-06
5.5186e-07
-1.32512e-06
5.30562e-07
-1.25278e-06
4.65957e-07
-1.16447e-06
3.57369e-07
-1.07309e-06
2.11464e-07
-9.83968e-07
4.10327e-08
-8.89522e-07
-1.4109e-07
-7.88741e-07
-3.21218e-07
-6.84859e-07
-4.84981e-07
-5.78701e-07
-6.27279e-07
-4.74443e-07
-7.46863e-07
-3.71342e-07
-8.43251e-07
-2.65512e-07
-9.03423e-07
-1.46004e-07
-8.89658e-07
-7.47562e-07
-1.85225e-07
6.09605e-07
-3.52476e-07
5.03848e-07
-5.11913e-07
4.26704e-07
-6.70939e-07
4.09319e-07
-8.27738e-07
4.26208e-07
-9.77143e-07
4.61336e-07
-1.11085e-06
5.05594e-07
-1.22222e-06
5.46515e-07
-1.30449e-06
5.77313e-07
-1.35459e-06
5.86556e-07
-1.37069e-06
5.68803e-07
-1.35478e-06
5.14867e-07
-1.31051e-06
4.23119e-07
-1.24362e-06
2.91604e-07
-1.15862e-06
1.28678e-07
-1.05844e-06
-5.69586e-08
-9.44986e-07
-2.52489e-07
-8.23676e-07
-4.40209e-07
-6.97244e-07
-6.10252e-07
-5.70006e-07
-7.528e-07
-4.48499e-07
-8.68029e-07
-3.36769e-07
-9.54827e-07
-2.31652e-07
-1.00783e-06
-1.28452e-07
-9.93726e-07
-8.77685e-07
-1.59246e-07
7.68814e-07
-3.16895e-07
6.62217e-07
-4.73281e-07
5.83311e-07
-6.3454e-07
5.72406e-07
-7.99347e-07
5.8968e-07
-9.55718e-07
6.20332e-07
-1.09921e-06
6.47677e-07
-1.21749e-06
6.67707e-07
-1.31015e-06
6.68439e-07
-1.36926e-06
6.48641e-07
-1.39883e-06
5.96816e-07
-1.39375e-06
5.12927e-07
-1.36068e-06
3.89144e-07
-1.29706e-06
2.31592e-07
-1.21005e-06
4.38129e-08
-1.09871e-06
-1.65938e-07
-9.68835e-07
-3.77812e-07
-8.29716e-07
-5.79102e-07
-6.82018e-07
-7.52711e-07
-5.39419e-07
-8.9683e-07
-4.03132e-07
-1.00058e-06
-2.87295e-07
-1.07302e-06
-1.88472e-07
-1.10624e-06
-1.01424e-07
-1.08549e-06
-9.7834e-07
-1.39947e-07
9.1056e-07
-2.90502e-07
8.13952e-07
-4.48017e-07
7.4319e-07
-6.18208e-07
7.41734e-07
-7.88042e-07
7.63293e-07
-9.52148e-07
7.832e-07
-1.09549e-06
7.95058e-07
-1.21821e-06
7.89247e-07
-1.31055e-06
7.64767e-07
-1.37678e-06
7.13165e-07
-1.40943e-06
6.33062e-07
-1.41497e-06
5.16007e-07
-1.38577e-06
3.64175e-07
-1.32725e-06
1.73976e-07
-1.23394e-06
-4.59186e-08
-1.10905e-06
-2.85195e-07
-9.64702e-07
-5.21312e-07
-8.01734e-07
-7.3393e-07
-6.40037e-07
-9.16087e-07
-4.78693e-07
-1.05034e-06
-3.39968e-07
-1.14332e-06
-2.20632e-07
-1.18741e-06
-1.37664e-07
-1.19546e-06
-6.60085e-08
-1.1528e-06
-1.04649e-06
-1.25491e-07
1.03667e-06
-2.69674e-07
9.59423e-07
-4.31428e-07
9.05471e-07
-6.04402e-07
9.17746e-07
-7.77827e-07
9.3661e-07
-9.36955e-07
9.45674e-07
-1.07783e-06
9.37361e-07
-1.19538e-06
9.10043e-07
-1.28988e-06
8.59921e-07
-1.35805e-06
7.83671e-07
-1.4015e-06
6.75572e-07
-1.41404e-06
5.30749e-07
-1.3935e-06
3.42767e-07
-1.33501e-06
1.18491e-07
-1.2321e-06
-1.45237e-07
-1.09389e-06
-4.21341e-07
-9.25378e-07
-6.83282e-07
-7.4393e-07
-9.15131e-07
-5.5642e-07
-1.09608e-06
-3.86598e-07
-1.22209e-06
-2.3608e-07
-1.28711e-06
-1.24972e-07
-1.30288e-06
-4.65216e-08
-1.26643e-06
-1.14605e-08
-1.1934e-06
-1.05999e-06
-1.14316e-07
1.15185e-06
-2.55456e-07
1.10124e-06
-4.1783e-07
1.0693e-06
-5.89703e-07
1.0899e-06
-7.5406e-07
1.10407e-06
-9.03671e-07
1.09797e-06
-1.03558e-06
1.07219e-06
-1.1492e-06
1.02644e-06
-1.2444e-06
9.57359e-07
-1.31934e-06
8.60275e-07
-1.37099e-06
7.28076e-07
-1.39335e-06
5.52084e-07
-1.37806e-06
3.28568e-07
-1.31655e-06
5.84939e-08
-1.20087e-06
-2.58861e-07
-1.04203e-06
-5.76771e-07
-8.50995e-07
-8.72594e-07
-6.40922e-07
-1.12093e-06
-4.32239e-07
-1.30373e-06
-2.40145e-07
-1.40993e-06
-8.05458e-08
-1.44718e-06
4.22499e-08
-1.42074e-06
1.09498e-07
-1.33796e-06
1.09191e-07
-1.19666e-06
-9.53118e-07
-8.3764e-08
1.23493e-06
-2.0039e-07
1.21784e-06
-3.37005e-07
1.20626e-06
-4.75605e-07
1.23118e-06
-6.06565e-07
1.23613e-06
-7.2531e-07
1.21997e-06
-8.33846e-07
1.18406e-06
-9.33939e-07
1.12968e-06
-1.02668e-06
1.05291e-06
-1.11352e-06
9.48643e-07
-1.19397e-06
8.09096e-07
-1.26256e-06
6.2292e-07
-1.30941e-06
3.76865e-07
-1.31879e-06
6.99261e-08
-1.27801e-06
-2.97374e-07
-1.18794e-06
-6.6465e-07
-1.05402e-06
-1.00414e-06
-8.87779e-07
-1.28518e-06
-7.06305e-07
-1.4831e-06
-5.29599e-07
-1.58532e-06
-3.68681e-07
-1.60638e-06
-2.28288e-07
-1.56189e-06
-1.05059e-07
-1.46307e-06
1.58421e-08
-1.32074e-06
-1.13344e-06
1.90029e-07
-6.9568e-08
1.30434e-06
-1.74737e-07
1.32303e-06
-2.94064e-07
1.32663e-06
-4.12797e-07
1.3492e-06
-5.20972e-07
1.34807e-06
-6.21288e-07
1.32252e-06
-7.14381e-07
1.2806e-06
-8.03633e-07
1.22197e-06
-8.91804e-07
1.14332e-06
-9.81507e-07
1.0406e-06
-1.07215e-06
9.04016e-07
-1.16031e-06
7.11465e-07
-1.22826e-06
4.47716e-07
-1.25159e-06
9.65877e-08
-1.22548e-06
-3.21058e-07
-1.14395e-06
-7.44056e-07
-1.00929e-06
-1.13697e-06
-8.31216e-07
-1.4615e-06
-6.29219e-07
-1.68364e-06
-4.30085e-07
-1.78311e-06
-2.46841e-07
-1.78913e-06
-8.0064e-08
-1.72891e-06
7.93514e-08
-1.62374e-06
2.44108e-07
-1.49011e-06
-1.33448e-06
4.44768e-07
-5.30644e-08
1.35592e-06
-1.42113e-07
1.4114e-06
-2.39833e-07
1.4234e-06
-3.31186e-07
1.44359e-06
-4.16048e-07
1.43284e-06
-4.92373e-07
1.4018e-06
-5.6478e-07
1.35604e-06
-6.3717e-07
1.29676e-06
-7.13272e-07
1.22227e-06
-7.9592e-07
1.1264e-06
-8.86817e-07
9.93925e-07
-9.75044e-07
8.0561e-07
-1.05283e-06
5.28724e-07
-1.08125e-06
1.27681e-07
-1.07532e-06
-3.2482e-07
-1.01336e-06
-8.04149e-07
-8.92543e-07
-1.25607e-06
-7.16381e-07
-1.63609e-06
-5.04661e-07
-1.89395e-06
-2.94322e-07
-1.99247e-06
-9.78893e-08
-1.98481e-06
8.48206e-08
-1.91168e-06
2.57922e-07
-1.7987e-06
4.30283e-07
-1.66218e-06
-1.51709e-06
6.12407e-07
-3.15506e-08
1.38627e-06
-9.99248e-08
1.47866e-06
-1.69736e-07
1.49367e-06
-2.34643e-07
1.50679e-06
-2.90249e-07
1.49103e-06
-3.40129e-07
1.45349e-06
-3.86898e-07
1.40441e-06
-4.34452e-07
1.34666e-06
-4.8786e-07
1.27673e-06
-5.4873e-07
1.18712e-06
-6.10514e-07
1.06274e-06
-6.77564e-07
8.71785e-07
-7.48271e-07
6.02728e-07
-7.59198e-07
1.43374e-07
-7.81224e-07
-3.00199e-07
-7.60237e-07
-8.23189e-07
-6.82345e-07
-1.33224e-06
-5.34962e-07
-1.78207e-06
-3.34442e-07
-2.09329e-06
-1.27572e-07
-2.19837e-06
6.88457e-08
-2.18079e-06
2.51642e-07
-2.09456e-06
4.22969e-07
-1.96974e-06
5.8729e-07
-1.82733e-06
-1.68036e-06
7.51355e-07
-5.64494e-09
1.38937e-06
-4.69795e-08
1.51805e-06
-8.75745e-08
1.53233e-06
-1.20624e-07
1.54135e-06
-1.48016e-07
1.51714e-06
-1.68405e-07
1.47447e-06
-1.84478e-07
1.42143e-06
-2.00273e-07
1.36261e-06
-2.18517e-07
1.29532e-06
-2.37365e-07
1.20869e-06
-2.53292e-07
1.07331e-06
-2.44212e-07
8.68544e-07
-2.30702e-07
5.92136e-07
-2.06182e-07
1.2072e-07
-2.7735e-07
-2.27786e-07
-3.35461e-07
-7.63821e-07
-3.46503e-07
-1.32009e-06
-2.68533e-07
-1.85905e-06
-1.09206e-07
-2.25184e-06
7.22266e-08
-2.37935e-06
2.52114e-07
-2.36039e-06
4.22448e-07
-2.26479e-06
5.82302e-07
-2.12994e-06
7.35036e-07
-1.97943e-06
-1.82799e-06
8.8325e-07
2.58656e-08
1.36026e-06
1.57918e-08
1.52553e-06
7.61073e-09
1.53937e-06
4.17426e-09
1.54113e-06
8.22733e-09
1.51338e-06
1.82482e-08
1.46286e-06
3.5593e-08
1.40299e-06
5.7775e-08
1.33908e-06
8.3556e-08
1.26779e-06
1.11561e-07
1.17574e-06
1.57978e-07
1.03205e-06
2.18622e-07
8.02718e-07
3.2696e-07
4.82829e-07
4.16005e-07
3.01828e-08
3.92303e-07
-2.04904e-07
2.39246e-07
-6.10737e-07
1.02107e-07
-1.18253e-06
7.51492e-08
-1.83172e-06
1.59311e-07
-2.33574e-06
2.97666e-07
-2.51753e-06
4.48245e-07
-2.51099e-06
5.96936e-07
-2.41354e-06
7.39728e-07
-2.27257e-06
8.76889e-07
-2.11626e-06
-1.96075e-06
1.01019e-06
6.45605e-08
1.29188e-06
8.54689e-08
1.50133e-06
1.07776e-07
1.51331e-06
1.37819e-07
1.51034e-06
1.68664e-07
1.47858e-06
2.05748e-07
1.42323e-06
2.50342e-07
1.3554e-06
3.037e-07
1.28245e-06
3.66329e-07
1.20179e-06
4.38074e-07
1.10327e-06
5.0899e-07
9.52972e-07
5.82589e-07
7.29563e-07
6.49518e-07
4.12061e-07
6.88789e-07
-1.36552e-08
7.4968e-07
-2.6872e-07
6.85298e-07
-5.47667e-07
5.40505e-07
-1.03821e-06
4.41964e-07
-1.73331e-06
4.51355e-07
-2.34521e-06
5.39009e-07
-2.60538e-06
6.52844e-07
-2.62507e-06
7.74384e-07
-2.53535e-06
8.96413e-07
-2.39455e-06
1.01676e-06
-2.23656e-06
-2.0797e-06
1.13635e-06
1.11241e-07
1.17481e-06
1.60859e-07
1.44761e-06
2.11532e-07
1.45978e-06
2.70868e-07
1.44634e-06
3.31178e-07
1.4152e-06
3.92137e-07
1.35828e-06
4.59122e-07
1.28392e-06
5.36763e-07
1.20039e-06
6.275e-07
1.10675e-06
7.29449e-07
9.95025e-07
8.34842e-07
8.47744e-07
9.25853e-07
6.31854e-07
9.98707e-07
3.34563e-07
1.02375e-06
-4.32488e-08
1.07299e-06
-3.21205e-07
1.05543e-06
-5.31979e-07
9.27071e-07
-9.10726e-07
7.90328e-07
-1.59703e-06
7.44655e-07
-2.29993e-06
7.84759e-07
-2.64588e-06
8.59799e-07
-2.70055e-06
9.52452e-07
-2.6283e-06
1.05253e-06
-2.49503e-06
1.1564e-06
-2.33993e-06
-2.1861e-06
1.26287e-06
1.65948e-07
1.00389e-06
2.4853e-07
1.36062e-06
3.15359e-07
1.38854e-06
3.97334e-07
1.36101e-06
4.84411e-07
1.32349e-06
5.69895e-07
1.2675e-06
6.56374e-07
1.19205e-06
7.49824e-07
1.10135e-06
8.55074e-07
9.96042e-07
9.75488e-07
8.7144e-07
1.09742e-06
7.18189e-07
1.20811e-06
5.18428e-07
1.2921e-06
2.45694e-07
1.32937e-06
-8.48958e-08
1.3601e-06
-3.55062e-07
1.34951e-06
-5.23453e-07
1.24087e-06
-8.03271e-07
1.09798e-06
-1.45481e-06
1.01814e-06
-2.22056e-06
1.02154e-06
-2.64977e-06
1.06225e-06
-2.74177e-06
1.12813e-06
-2.69477e-06
1.20789e-06
-2.57476e-06
1.29556e-06
-2.42813e-06
-2.28035e-06
1.39023e-06
2.28908e-07
7.66403e-07
3.52057e-07
1.23248e-06
4.29976e-07
1.30652e-06
5.16765e-07
1.26957e-06
6.18583e-07
1.21644e-06
7.2487e-07
1.15564e-06
8.30475e-07
1.08035e-06
9.38121e-07
9.87579e-07
1.05272e-06
8.75779e-07
1.17498e-06
7.42653e-07
1.30208e-06
5.88521e-07
1.41701e-06
3.97448e-07
1.50419e-06
1.53908e-07
1.54718e-06
-1.31795e-07
1.56882e-06
-3.79646e-07
1.56504e-06
-5.21849e-07
1.47785e-06
-7.17376e-07
1.34971e-06
-1.32742e-06
1.25941e-06
-2.13085e-06
1.23901e-06
-2.62994e-06
1.25558e-06
-2.75895e-06
1.29929e-06
-2.73893e-06
1.36036e-06
-2.63665e-06
1.4339e-06
-2.50131e-06
-2.36357e-06
1.51681e-06
2.83401e-07
4.76219e-07
4.70703e-07
1.04039e-06
5.69539e-07
1.20343e-06
6.49823e-07
1.18474e-06
7.44622e-07
1.11681e-06
8.53383e-07
1.04058e-06
9.68618e-07
9.58244e-07
1.08719e-06
8.62322e-07
1.20903e-06
7.4749e-07
1.3333e-06
6.13665e-07
1.45407e-06
4.61115e-07
1.56311e-06
2.84409e-07
1.64305e-06
6.93146e-08
1.68555e-06
-1.77933e-07
1.70635e-06
-4.03282e-07
1.71048e-06
-5.28114e-07
1.64992e-06
-6.58268e-07
1.54807e-06
-1.22642e-06
1.46555e-06
-2.04892e-06
1.43399e-06
-2.59893e-06
1.43611e-06
-2.76168e-06
1.46256e-06
-2.76608e-06
1.50835e-06
-2.6825e-06
1.56796e-06
-2.56181e-06
-2.43533e-06
1.63987e-06
2.8603e-07
1.76268e-07
5.72599e-07
7.48514e-07
7.28584e-07
1.0434e-06
8.17716e-07
1.09155e-06
8.95134e-07
1.03318e-06
9.84272e-07
9.44872e-07
1.08708e-06
8.48392e-07
1.19977e-06
7.42291e-07
1.31896e-06
6.21633e-07
1.43901e-06
4.87117e-07
1.5547e-06
3.41225e-07
1.65474e-06
1.78962e-07
1.72775e-06
-8.15517e-09
1.77066e-06
-2.24344e-07
1.79289e-06
-4.28238e-07
1.80448e-06
-5.41942e-07
1.77402e-06
-6.293e-07
1.70344e-06
-1.15674e-06
1.63927e-06
-1.98539e-06
1.60751e-06
-2.56778e-06
1.60194e-06
-2.75669e-06
1.61555e-06
-2.78018e-06
1.64752e-06
-2.71545e-06
1.69496e-06
-2.60909e-06
-2.49615e-06
1.75521e-06
2.08819e-07
-4.80843e-08
5.88408e-07
3.62934e-07
8.54639e-07
7.72812e-07
1.00045e-06
9.40376e-07
1.0866e-06
9.42804e-07
1.15679e-06
8.67728e-07
1.23296e-06
7.64851e-07
1.32022e-06
6.47422e-07
1.41722e-06
5.17669e-07
1.51974e-06
3.78784e-07
1.62047e-06
2.345e-07
1.71028e-06
8.42807e-08
1.77888e-06
-8.10076e-08
1.82391e-06
-2.72529e-07
1.85169e-06
-4.58567e-07
1.87241e-06
-5.64739e-07
1.86792e-06
-6.26358e-07
1.82829e-06
-1.11807e-06
1.78701e-06
-1.94477e-06
1.76097e-06
-2.54228e-06
1.75239e-06
-2.74871e-06
1.75519e-06
-2.78369e-06
1.77557e-06
-2.73598e-06
1.81018e-06
-2.6447e-06
-2.54542e-06
1.85933e-06
6.2914e-08
-1.41884e-07
4.45273e-07
-3.11818e-08
8.53086e-07
3.58952e-07
1.12234e-06
6.68295e-07
1.27169e-06
7.8623e-07
1.35975e-06
7.73794e-07
1.42549e-06
6.91702e-07
1.48972e-06
5.75976e-07
1.55869e-06
4.41626e-07
1.63323e-06
2.97835e-07
1.7105e-06
1.51811e-07
1.78434e-06
6.00871e-09
1.84592e-06
-1.46669e-07
1.88956e-06
-3.19174e-07
1.9183e-06
-4.89716e-07
1.93922e-06
-5.87703e-07
1.94524e-06
-6.33902e-07
1.93367e-06
-1.10747e-06
1.91689e-06
-1.92865e-06
1.89675e-06
-2.52272e-06
1.88525e-06
-2.73776e-06
1.87992e-06
-2.77885e-06
1.88808e-06
-2.74509e-06
1.91114e-06
-2.66788e-06
-2.58403e-06
1.94908e-06
-9.34786e-08
-7.23361e-08
1.04218e-07
-2.42814e-07
5.96653e-07
-1.4075e-07
1.0542e-06
2.02635e-07
1.34567e-06
4.91094e-07
1.50993e-06
6.02825e-07
1.60793e-06
5.86651e-07
1.6772e-06
4.99715e-07
1.73615e-06
3.75974e-07
1.79305e-06
2.35095e-07
1.85049e-06
8.9859e-08
1.90486e-06
-5.43831e-08
1.95134e-06
-1.96551e-07
1.98414e-06
-3.54862e-07
2.00324e-06
-5.11107e-07
2.01346e-06
-5.99943e-07
2.01029e-06
-6.32309e-07
2.02549e-06
-1.12369e-06
2.03139e-06
-1.93527e-06
2.01561e-06
-2.5075e-06
1.99899e-06
-2.72172e-06
1.98622e-06
-2.76674e-06
1.98291e-06
-2.74211e-06
1.99468e-06
-2.68057e-06
-2.61265e-06
2.02292e-06
-1.38468e-07
3.2768e-08
-1.42507e-07
-2.53036e-07
1.16025e-07
-4.11938e-07
6.53446e-07
-3.39322e-07
1.15278e-06
-1.69248e-08
1.47584e-06
2.7324e-07
1.66675e-06
3.89534e-07
1.78594e-06
3.73787e-07
1.86802e-06
2.87952e-07
1.93103e-06
1.66818e-07
1.9821e-06
3.186e-08
2.02513e-06
-9.99333e-08
2.05593e-06
-2.31684e-07
2.07507e-06
-3.76853e-07
2.07881e-06
-5.17157e-07
2.07285e-06
-5.95903e-07
2.06062e-06
-6.21589e-07
2.10164e-06
-1.16569e-06
2.12761e-06
-1.96192e-06
2.11515e-06
-2.49562e-06
2.09129e-06
-2.69838e-06
2.07045e-06
-2.74643e-06
2.05692e-06
-2.72938e-06
2.05992e-06
-2.684e-06
-2.63338e-06
2.07999e-06
-1.26287e-07
1.43344e-07
-1.72312e-07
-2.15158e-07
-1.59498e-07
-4.32709e-07
7.91973e-08
-5.92375e-07
5.92858e-07
-5.35276e-07
1.10813e-06
-2.50343e-07
1.46992e-06
2.09672e-08
1.69783e-06
1.39572e-07
1.84757e-06
1.32427e-07
1.9497e-06
5.88196e-08
2.02187e-06
-4.21483e-08
2.06727e-06
-1.52109e-07
2.09587e-06
-2.62868e-07
2.108e-06
-3.91387e-07
2.10346e-06
-5.14581e-07
2.08766e-06
-5.81858e-07
2.08533e-06
-6.2062e-07
2.15585e-06
-1.23712e-06
2.20003e-06
-2.00677e-06
2.1897e-06
-2.48582e-06
2.15952e-06
-2.66875e-06
2.12998e-06
-2.71746e-06
2.10955e-06
-2.70947e-06
2.10602e-06
-2.68118e-06
-2.64832e-06
2.12035e-06
-1.07652e-07
2.38553e-07
-2.14511e-07
-1.17816e-07
-2.59732e-07
-3.95966e-07
-2.49866e-07
-6.02868e-07
-5.78195e-08
-7.41761e-07
3.81332e-07
-6.9545e-07
8.87001e-07
-4.92379e-07
1.29324e-06
-2.72335e-07
1.57177e-06
-1.50839e-07
1.75977e-06
-1.31938e-07
1.8839e-06
-1.73178e-07
1.96783e-06
-2.36097e-07
2.02111e-06
-3.19387e-07
2.0517e-06
-4.24189e-07
2.05676e-06
-5.21389e-07
2.03775e-06
-5.64406e-07
2.07087e-06
-6.54914e-07
2.18313e-06
-1.35021e-06
2.24407e-06
-2.06831e-06
2.23455e-06
-2.47681e-06
2.20025e-06
-2.63492e-06
2.16454e-06
-2.6823e-06
2.14034e-06
-2.68584e-06
2.13335e-06
-2.6749e-06
-2.65983e-06
2.1443e-06
-1.00785e-07
3.35745e-07
-2.54967e-07
3.40401e-08
-3.32948e-07
-3.18428e-07
-3.73265e-07
-5.72672e-07
-3.61838e-07
-7.51799e-07
-2.25027e-07
-8.39768e-07
9.75938e-08
-8.20622e-07
5.36005e-07
-7.15069e-07
9.50256e-07
-5.68457e-07
1.27296e-06
-4.5847e-07
1.50808e-06
-4.06559e-07
1.67096e-06
-4.03952e-07
1.78863e-06
-4.38212e-07
1.86817e-06
-5.04938e-07
1.89964e-06
-5.54008e-07
1.89416e-06
-5.59943e-07
2.01592e-06
-7.77499e-07
2.182e-06
-1.51693e-06
2.25617e-06
-2.14301e-06
2.24865e-06
-2.46973e-06
2.2122e-06
-2.59893e-06
2.17479e-06
-2.64533e-06
2.15011e-06
-2.66187e-06
2.14276e-06
-2.66797e-06
-2.67016e-06
2.15234e-06
-9.78709e-08
4.34826e-07
-2.75654e-07
2.11399e-07
-3.81969e-07
-2.16132e-07
-4.40155e-07
-5.09346e-07
-4.60807e-07
-7.36323e-07
-4.12383e-07
-8.88556e-07
-2.77389e-07
-9.56191e-07
-2.81175e-08
-9.65786e-07
3.22305e-07
-9.18838e-07
6.8742e-07
-8.22102e-07
1.00306e-06
-7.26436e-07
1.25902e-06
-6.5751e-07
1.45768e-06
-6.37841e-07
1.59258e-06
-6.40431e-07
1.64981e-06
-6.11706e-07
1.70952e-06
-6.20177e-07
1.96195e-06
-1.03043e-06
2.1739e-06
-1.72935e-06
2.24955e-06
-2.21908e-06
2.23787e-06
-2.45844e-06
2.19906e-06
-2.5605e-06
2.1628e-06
-2.60961e-06
2.14098e-06
-2.64033e-06
2.13531e-06
-2.66325e-06
-2.68072e-06
2.14549e-06
-1.09478e-07
5.51325e-07
-2.61096e-07
3.68714e-07
-4.01105e-07
-7.07833e-08
-4.7368e-07
-4.40614e-07
-4.84978e-07
-7.19094e-07
-4.3827e-07
-9.33215e-07
-3.22301e-07
-1.06963e-06
-1.53581e-07
-1.13097e-06
7.27336e-08
-1.14202e-06
3.47785e-07
-1.09626e-06
6.39423e-07
-1.0126e-06
9.12187e-07
-9.32034e-07
1.14208e-06
-8.66781e-07
1.28758e-06
-7.8545e-07
1.3807e-06
-7.04628e-07
1.60542e-06
-8.44926e-07
1.95766e-06
-1.38289e-06
2.16817e-06
-1.94017e-06
2.22195e-06
-2.27318e-06
2.20012e-06
-2.43692e-06
2.16131e-06
-2.52205e-06
2.1307e-06
-2.57927e-06
2.11443e-06
-2.62491e-06
2.11312e-06
-2.662e-06
-2.69324e-06
2.12482e-06
-1.23444e-07
6.82506e-07
-2.38689e-07
4.91765e-07
-4.11594e-07
1.04976e-07
-4.85568e-07
-3.57195e-07
-4.91127e-07
-7.1248e-07
-4.21423e-07
-9.96581e-07
-2.89051e-07
-1.1963e-06
-1.20819e-07
-1.29321e-06
6.38323e-08
-1.32063e-06
2.67293e-07
-1.29345e-06
4.90147e-07
-1.23559e-06
7.16545e-07
-1.15378e-06
9.03e-07
-1.05198e-06
1.04645e-06
-9.27777e-07
1.26885e-06
-9.26314e-07
1.66177e-06
-1.23759e-06
2.00041e-06
-1.72158e-06
2.14638e-06
-2.08633e-06
2.16299e-06
-2.29002e-06
2.13357e-06
-2.40776e-06
2.1019e-06
-2.49065e-06
2.08146e-06
-2.55932e-06
2.07399e-06
-2.61742e-06
2.07755e-06
-2.66666e-06
-2.70805e-06
2.0922e-06
-1.20087e-07
8.12303e-07
-2.326e-07
6.13814e-07
-3.9756e-07
2.83706e-07
-4.92634e-07
-2.60361e-07
-4.95528e-07
-6.99901e-07
-4.10131e-07
-1.07499e-06
-2.53357e-07
-1.34492e-06
-6.98028e-08
-1.4683e-06
1.13974e-07
-1.49685e-06
2.91307e-07
-1.46602e-06
4.7104e-07
-1.40811e-06
6.43191e-07
-1.32453e-06
8.11179e-07
-1.21714e-06
1.04346e-06
-1.15823e-06
1.41393e-06
-1.29579e-06
1.79895e-06
-1.62218e-06
2.01493e-06
-1.93746e-06
2.07437e-06
-2.14584e-06
2.06584e-06
-2.28163e-06
2.04297e-06
-2.38507e-06
2.02675e-06
-2.47465e-06
2.02028e-06
-2.55298e-06
2.02192e-06
-2.61996e-06
2.03189e-06
-2.67636e-06
-2.72614e-06
2.04916e-06
-1.13118e-07
9.35758e-07
-2.31798e-07
7.43128e-07
-3.64884e-07
4.25098e-07
-4.85346e-07
-1.26615e-07
-5.01228e-07
-6.7648e-07
-4.05796e-07
-1.16121e-06
-2.28842e-07
-1.51218e-06
-3.24413e-08
-1.65523e-06
1.59652e-07
-1.68041e-06
3.41992e-07
-1.64076e-06
5.14831e-07
-1.57799e-06
6.96045e-07
-1.50054e-06
9.23231e-07
-1.44153e-06
1.2432e-06
-1.47634e-06
1.59296e-06
-1.64452e-06
1.82961e-06
-1.85832e-06
1.92464e-06
-2.0323e-06
1.94423e-06
-2.16541e-06
1.94192e-06
-2.27939e-06
1.94075e-06
-2.384e-06
1.94443e-06
-2.4785e-06
1.95165e-06
-2.56062e-06
1.9627e-06
-2.63071e-06
1.9774e-06
-2.69219e-06
-2.74663e-06
1.99795e-06
-9.76843e-08
1.041e-06
-2.0933e-07
8.6328e-07
-3.15279e-07
5.47312e-07
-4.56808e-07
2.62993e-08
-4.92425e-07
-6.3099e-07
-3.94118e-07
-1.24869e-06
-2.01295e-07
-1.6948e-06
4.49849e-09
-1.85107e-06
2.05774e-07
-1.87331e-06
4.01593e-07
-1.83089e-06
5.98909e-07
-1.76906e-06
8.17453e-07
-1.71589e-06
1.08147e-06
-1.70273e-06
1.36543e-06
-1.75853e-06
1.58602e-06
-1.86406e-06
1.70589e-06
-1.97761e-06
1.76104e-06
-2.08716e-06
1.79236e-06
-2.19663e-06
1.81829e-06
-2.30529e-06
1.84178e-06
-2.40756e-06
1.86209e-06
-2.49893e-06
1.88017e-06
-2.57868e-06
1.89754e-06
-2.64899e-06
1.91741e-06
-2.71151e-06
-2.76995e-06
1.94e-06
-6.87821e-08
1.12052e-06
-1.55607e-07
9.62471e-07
-2.49629e-07
6.50692e-07
-3.70157e-07
1.65114e-07
-4.4261e-07
-5.44809e-07
-3.55255e-07
-1.32687e-06
-1.5223e-07
-1.88814e-06
5.85177e-08
-2.05288e-06
2.64137e-07
-2.07151e-06
4.67688e-07
-2.02822e-06
6.74613e-07
-1.97216e-06
8.9382e-07
-1.93141e-06
1.11613e-06
-1.92242e-06
1.30633e-06
-1.94699e-06
1.44116e-06
-1.99782e-06
1.53377e-06
-2.06959e-06
1.60519e-06
-2.15823e-06
1.66502e-06
-2.25628e-06
1.71416e-06
-2.35435e-06
1.75253e-06
-2.44594e-06
1.78233e-06
-2.5288e-06
1.80684e-06
-2.60354e-06
1.82984e-06
-2.67148e-06
1.85244e-06
-2.73519e-06
-2.79471e-06
1.87742e-06
-2.84941e-08
1.15562e-06
-8.35215e-08
1.02221e-06
-1.4884e-07
7.32439e-07
-1.92868e-07
2.33893e-07
-3.31087e-07
-3.99047e-07
-2.6834e-07
-1.37926e-06
-6.91437e-08
-2.07864e-06
1.36542e-07
-2.25104e-06
3.34759e-07
-2.26364e-06
5.25676e-07
-2.2147e-06
7.11492e-07
-2.15414e-06
8.89506e-07
-2.10633e-06
1.05036e-06
-2.08112e-06
1.18808e-06
-2.08319e-06
1.306e-06
-2.11472e-06
1.40907e-06
-2.17202e-06
1.49779e-06
-2.24657e-06
1.57034e-06
-2.32861e-06
1.62685e-06
-2.41075e-06
1.6702e-06
-2.48926e-06
1.70448e-06
-2.56311e-06
1.73355e-06
-2.63249e-06
1.75954e-06
-2.69832e-06
1.78551e-06
-2.76043e-06
-2.82119e-06
1.81137e-06
2.01281e-08
1.14271e-06
8.85435e-09
1.04348e-06
-2.2425e-08
7.72097e-07
5.09615e-08
1.757e-07
-1.35867e-07
-1.96061e-07
-1.14606e-07
-1.39414e-06
5.18278e-08
-2.23914e-06
2.36676e-07
-2.43066e-06
4.12125e-07
-2.43503e-06
5.74199e-07
-2.37344e-06
7.23713e-07
-2.30074e-06
8.61891e-07
-2.24255e-06
9.91983e-07
-2.20925e-06
1.11571e-06
-2.20556e-06
1.23135e-06
-2.22945e-06
1.33452e-06