/*--------------------------------*- C++ -*----------------------------------*\
  =========                 |
  \\      /  F ield         | OpenFOAM: The Open Source CFD Toolbox
   \\    /   O peration     | Website:  https://openfoam.org
    \\  /    A nd           | Version:  13
     \\/     M anipulation  |
\*---------------------------------------------------------------------------*/
FoamFile
{
    format      ascii;
    class       volVectorField;
    location    "25";
    object      U;
}
// * * * * * * * * * * * * * * * * * * * * * * * * * * * * * * * * * * * * * //

dimensions      [0 1 -1 0 0 0 0];

internalField   nonuniform List<vector> 
6440
(
(-6.15631e-07 1.19781e-06 0)
(-1.556e-06 1.56096e-06 0)
(-2.63292e-06 1.39896e-06 -3.13601e-20)
(-3.29284e-06 1.46234e-06 3.12687e-20)
(-3.87157e-06 1.71969e-06 0)
(-4.28515e-06 2.05513e-06 -6.21192e-20)
(-4.4788e-06 2.41551e-06 6.17628e-20)
(-4.43318e-06 2.74928e-06 0)
(-4.16101e-06 3.0415e-06 1.22068e-19)
(-3.65847e-06 3.25796e-06 -1.21042e-19)
(-2.92289e-06 3.35838e-06 -1.2005e-19)
(-1.96545e-06 3.30978e-06 -2.60038e-23)
(-8.15494e-07 3.08314e-06 5.43124e-24)
(4.66463e-07 2.65668e-06 1.16203e-19)
(1.77825e-06 2.04853e-06 1.14654e-19)
(3.01657e-06 1.31267e-06 -1.13154e-19)
(4.14934e-06 4.88284e-07 0)
(5.19899e-06 -4.32539e-07 2.19209e-19)
(6.04275e-06 -1.39279e-06 -3.39347e-22)
(6.50458e-06 -2.21734e-06 -2.12205e-19)
(6.61619e-06 -2.76645e-06 2.08054e-19)
(6.42172e-06 -2.92449e-06 -4.08792e-19)
(6.52178e-06 -2.61726e-06 2.00702e-19)
(5.41402e-06 -3.83916e-07 -1.96501e-19)
(1.58693e-06 2.34314e-06 1.0674e-22)
(-4.68786e-07 2.93611e-06 0)
(-9.46909e-07 3.44027e-06 0)
(-1.36751e-06 2.58365e-06 -3.29988e-20)
(-1.39274e-06 2.19365e-06 3.29042e-20)
(-1.29212e-06 2.21052e-06 0)
(-1.05996e-06 2.4458e-06 -6.53768e-20)
(-7.2742e-07 2.83946e-06 6.50081e-20)
(-2.48508e-07 3.30332e-06 0)
(3.67396e-07 3.76717e-06 0)
(1.04873e-06 4.23652e-06 0)
(1.77909e-06 4.66759e-06 0)
(2.55239e-06 5.00142e-06 -1.25275e-19)
(3.34524e-06 5.1927e-06 1.23935e-19)
(4.11742e-06 5.21055e-06 0)
(4.8029e-06 5.05559e-06 1.20951e-19)
(5.37836e-06 4.74163e-06 -1.19394e-19)
(5.86876e-06 4.27411e-06 0)
(6.25775e-06 3.66468e-06 0)
(6.53229e-06 2.9196e-06 2.27484e-19)
(6.7295e-06 2.09288e-06 -2.23986e-19)
(6.67233e-06 1.3972e-06 2.19391e-19)
(6.08838e-06 1.11992e-06 -2.15782e-19)
(6.12537e-06 1.23971e-06 -2.1101e-19)
(6.16317e-06 3.22348e-06 5.24184e-22)
(1.1815e-06 6.85285e-06 1.53557e-19)
(-3.62177e-07 3.89754e-06 0)
(-6.96966e-07 3.91289e-06 0)
(-7.60197e-07 2.26369e-06 -3.30342e-20)
(-4.52517e-07 1.36585e-06 3.29451e-20)
(-9.86617e-09 1.06775e-06 0)
(5.40403e-07 1.14526e-06 -6.5506e-20)
(1.09123e-06 1.5589e-06 1.30379e-19)
(1.58393e-06 2.26259e-06 -6.48194e-20)
(2.14862e-06 3.10992e-06 1.28993e-19)
(2.83065e-06 3.98132e-06 -1.27989e-19)
(3.51175e-06 4.88607e-06 -1.2711e-19)
(4.17016e-06 5.74625e-06 -7.21301e-23)
(4.81108e-06 6.46797e-06 1.24726e-19)
(5.42163e-06 6.9764e-06 1.23407e-19)
(5.98694e-06 7.23904e-06 -5.69122e-23)
(6.51022e-06 7.23613e-06 -1.20449e-19)
(7.01207e-06 6.92727e-06 0)
(7.52285e-06 6.27689e-06 2.33649e-19)
(8.06902e-06 5.32755e-06 -2.30377e-19)
(8.58981e-06 4.1797e-06 0)
(8.71203e-06 2.98601e-06 2.21747e-19)
(8.09206e-06 2.08846e-06 -4.35826e-19)
(7.7782e-06 1.50983e-06 2.14039e-19)
(7.56886e-06 2.48459e-06 -2.09086e-19)
(1.03296e-06 6.72831e-06 1.5723e-19)
(-3.29537e-07 4.61844e-06 0)
(-6.79046e-07 3.81229e-06 0)
(-6.20663e-07 1.38751e-06 -3.29277e-20)
(-2.3446e-07 3.52153e-08 3.28443e-20)
(2.75938e-07 -5.15899e-07 0)
(8.84878e-07 -5.04384e-07 -6.536e-20)
(1.50482e-06 1.78857e-08 1.3014e-19)
(2.04901e-06 1.01808e-06 -6.47296e-20)
(2.4656e-06 2.42168e-06 0)
(2.94446e-06 3.98836e-06 0)
(3.54513e-06 5.59033e-06 0)
(4.12056e-06 7.14669e-06 -1.26189e-19)
(4.66044e-06 8.52795e-06 1.24989e-19)
(5.22764e-06 9.60486e-06 1.23784e-19)
(5.85995e-06 1.02794e-05 -1.22441e-19)
(6.51866e-06 1.05003e-05 0)
(7.19318e-06 1.02048e-05 2.38484e-19)
(8.01258e-06 9.29728e-06 -2.35458e-19)
(9.09316e-06 7.76944e-06 0)
(1.00759e-05 5.94221e-06 0)
(1.04605e-05 4.01961e-06 0)
(9.98585e-06 2.36517e-06 0)
(9.34755e-06 1.11135e-06 0)
(8.99226e-06 1.03407e-06 -2.10538e-19)
(1.07566e-06 6.11181e-06 2.86387e-22)
(-3.21727e-07 5.36488e-06 0)
(-7.60755e-07 3.60867e-06 0)
(-7.17004e-07 4.88606e-07 -3.27003e-20)
(-3.96267e-07 -1.22286e-06 3.26224e-20)
(5.88874e-08 -1.93237e-06 0)
(6.17237e-07 -1.88249e-06 -6.49734e-20)
(1.18494e-06 -1.12927e-06 1.2942e-19)
(1.70102e-06 2.50206e-07 -6.43997e-20)
(2.10707e-06 2.16667e-06 0)
(2.49841e-06 4.43816e-06 0)
(2.95506e-06 6.74009e-06 0)
(3.42699e-06 8.97827e-06 -1.25905e-19)
(3.94179e-06 1.09784e-05 1.24777e-19)
(4.56031e-06 1.25581e-05 1.23695e-19)
(5.29796e-06 1.35614e-05 -1.22428e-19)
(6.10843e-06 1.39066e-05 0)
(6.97809e-06 1.35323e-05 2.38832e-19)
(8.06731e-06 1.2316e-05 -2.35966e-19)
(9.59618e-06 1.01521e-05 0)
(1.10389e-05 7.48818e-06 0)
(1.17707e-05 4.81989e-06 0)
(1.15652e-05 2.47502e-06 0)
(1.07454e-05 7.19751e-07 0)
(1.0429e-05 -2.49359e-07 -2.11289e-19)
(1.21761e-06 5.53296e-06 1.62813e-19)
(-3.15801e-07 6.20448e-06 0)
(-8.71562e-07 3.49787e-06 0)
(-9.03593e-07 -2.08409e-07 -3.23712e-20)
(-7.11798e-07 -2.19814e-06 3.22987e-20)
(-3.717e-07 -3.01125e-06 0)
(1.07432e-07 -2.89705e-06 -6.43822e-20)
(6.27574e-07 -1.91716e-06 1.2829e-19)
(1.13397e-06 -1.70568e-07 -6.38637e-20)
(1.56448e-06 2.21175e-06 1.27384e-19)
(1.83241e-06 5.06198e-06 -1.26559e-19)
(2.15949e-06 8.02436e-06 0)
(2.66816e-06 1.08838e-05 -1.25206e-19)
(3.22913e-06 1.3452e-05 -1.15086e-22)
(3.88218e-06 1.54861e-05 2.46334e-19)
(4.68659e-06 1.67778e-05 -1.22007e-19)
(5.62657e-06 1.72088e-05 0)
(6.64571e-06 1.67541e-05 2.38424e-19)
(7.85342e-06 1.53127e-05 -5.05834e-22)
(9.57438e-06 1.2692e-05 -7.01825e-22)
(1.14708e-05 9.20035e-06 -2.28853e-19)
(1.27412e-05 5.76379e-06 0)
(1.29213e-05 2.7882e-06 0)
(1.20636e-05 6.51469e-07 0)
(1.18785e-05 -1.05491e-06 -2.11436e-19)
(1.43702e-06 5.17464e-06 1.64828e-19)
(-3.0938e-07 7.13139e-06 0)
(-9.87111e-07 3.53101e-06 0)
(-1.11774e-06 -6.53113e-07 -3.1958e-20)
(-1.07536e-06 -2.87061e-06 3.18906e-20)
(-8.72805e-07 -3.77526e-06 6.37488e-20)
(-5.09365e-07 -3.60953e-06 -1.27148e-19)
(-5.98169e-08 -2.44851e-06 1.26818e-19)
(4.28425e-07 -4.01973e-07 -6.31557e-20)
(8.85541e-07 2.36125e-06 0)
(1.2323e-06 5.64633e-06 1.25519e-19)
(1.63708e-06 9.17258e-06 -1.24675e-19)
(2.17777e-06 1.25908e-05 -1.24152e-19)
(2.74479e-06 1.56611e-05 1.23163e-19)
(3.39113e-06 1.81178e-05 1.22351e-19)
(4.19625e-06 1.97148e-05 -1.21233e-19)
(5.18939e-06 2.02814e-05 0)
(6.30271e-06 1.97943e-05 2.37359e-19)
(7.54086e-06 1.82575e-05 -2.34811e-19)
(9.22701e-06 1.54582e-05 0)
(1.15058e-05 1.13581e-05 2.27384e-19)
(1.34482e-05 7.09905e-06 -2.24617e-19)
(1.41359e-05 3.47191e-06 0)
(1.33905e-05 9.50115e-07 0)
(1.33232e-05 -1.36709e-06 -2.11052e-19)
(1.6674e-06 5.11673e-06 4.42272e-22)
(-3.05984e-07 8.12908e-06 0)
(-1.107e-06 3.72407e-06 0)
(-1.35265e-06 -8.34409e-07 -3.14762e-20)
(-1.46959e-06 -3.24603e-06 3.14137e-20)
(-1.41715e-06 -4.24636e-06 0)
(-1.17112e-06 -4.06204e-06 -6.27203e-20)
(-7.66537e-07 -2.76836e-06 6.24756e-20)
(-2.47325e-07 -4.9872e-07 0)
(3.10041e-07 2.55859e-06 0)
(8.17707e-07 6.19529e-06 0)
(1.35036e-06 1.01237e-05 0)
(1.9535e-06 1.39359e-05 -1.22802e-19)
(2.5602e-06 1.74066e-05 1.2188e-19)
(3.20871e-06 2.0258e-05 0)
(3.97486e-06 2.22082e-05 0)
(4.93455e-06 2.30293e-05 0)
(6.09371e-06 2.26269e-05 0)
(7.35509e-06 2.10949e-05 0)
(8.89281e-06 1.83787e-05 2.29774e-19)
(1.12928e-05 1.41093e-05 -2.27225e-19)
(1.38323e-05 8.97174e-06 0)
(1.51658e-05 4.61935e-06 0)
(1.46584e-05 1.65095e-06 0)
(1.47342e-05 -1.29007e-06 -2.10212e-19)
(1.91971e-06 5.29874e-06 1.67499e-19)
(-3.06515e-07 9.18288e-06 0)
(-1.22924e-06 4.08615e-06 0)
(-1.60464e-06 -7.51672e-07 -3.09392e-20)
(-1.88241e-06 -3.33707e-06 3.08813e-20)
(-1.97734e-06 -4.44694e-06 0)
(-1.83992e-06 -4.27446e-06 -6.17066e-20)
(-1.46673e-06 -2.90899e-06 1.23084e-19)
(-8.90782e-07 -5.14545e-07 -6.13415e-20)
(-1.70847e-07 2.69221e-06 0)
(5.83154e-07 6.4918e-06 0)
(1.28336e-06 1.06393e-05 1.2176e-19)
(2.00784e-06 1.47037e-05 -2.42171e-19)
(2.7688e-06 1.84767e-05 1.20348e-19)
(3.49605e-06 2.16953e-05 1.19804e-19)
(4.24096e-06 2.40544e-05 -1.18825e-19)
(5.11369e-06 2.52781e-05 0)
(6.21523e-06 2.51741e-05 -2.33591e-19)
(7.52079e-06 2.37617e-05 2.31343e-19)
(8.99611e-06 2.11962e-05 0)
(1.09944e-05 1.72695e-05 0)
(1.3836e-05 1.17271e-05 0)
(1.60917e-05 6.44852e-06 2.17178e-19)
(1.58831e-05 2.97701e-06 -2.1463e-19)
(1.61445e-05 -6.54069e-07 -2.08985e-19)
(2.23022e-06 5.78012e-06 1.68238e-19)
(-3.13139e-07 1.02794e-05 0)
(-1.35594e-06 4.62373e-06 0)
(-1.88213e-06 -3.97296e-07 0)
(-2.32464e-06 -3.12468e-06 0)
(-2.54835e-06 -4.35736e-06 0)
(-2.50228e-06 -4.24262e-06 0)
(-2.15251e-06 -2.88344e-06 0)
(-1.50901e-06 -4.70058e-07 0)
(-6.13436e-07 2.75059e-06 -1.20596e-19)
(4.29491e-07 6.53121e-06 1.19981e-19)
(1.41961e-06 1.06693e-05 0)
(2.44539e-06 1.48309e-05 0)
(3.53006e-06 1.87572e-05 0)
(4.46466e-06 2.22516e-05 0)
(5.26857e-06 2.50331e-05 0)
(6.06275e-06 2.67934e-05 0)
(7.01358e-06 2.72486e-05 0)
(8.23245e-06 2.62578e-05 -2.28666e-19)
(9.63605e-06 2.39771e-05 2.26481e-19)
(1.13343e-05 2.04968e-05 0)
(1.40949e-05 1.52911e-05 -2.19399e-19)
(1.69323e-05 9.25681e-06 2.17039e-19)
(1.7158e-05 5.19359e-06 0)
(1.76362e-05 8.37016e-07 0)
(2.61471e-06 6.76026e-06 0)
(-3.20746e-07 1.13944e-05 0)
(-1.46176e-06 5.31748e-06 0)
(-2.13247e-06 1.99197e-07 0)
(-2.73816e-06 -2.63532e-06 0)
(-3.09619e-06 -3.99377e-06 0)
(-3.13903e-06 -3.97483e-06 0)
(-2.80463e-06 -2.69315e-06 5.93759e-20)
(-2.07791e-06 -3.65476e-07 -5.9151e-20)
(-9.86156e-07 2.74205e-06 -1.18418e-19)
(3.77565e-07 6.36969e-06 1.17847e-19)
(1.81591e-06 1.03225e-05 1.17848e-19)
(3.33004e-06 1.43894e-05 -1.17161e-19)
(4.8854e-06 1.82786e-05 0)
(6.24494e-06 2.1855e-05 1.16408e-19)
(7.3262e-06 2.49333e-05 1.80194e-22)
(8.1791e-06 2.72747e-05 -1.14837e-19)
(8.97844e-06 2.85338e-05 0)
(9.96837e-06 2.83922e-05 -2.25968e-19)
(1.12567e-05 2.6771e-05 2.23918e-19)
(1.27611e-05 2.39081e-05 0)
(1.49642e-05 1.95375e-05 0)
(1.80047e-05 1.33534e-05 2.13624e-19)
(1.88896e-05 8.38296e-06 -2.11367e-19)
(1.96146e-05 3.11605e-06 0)
(3.26236e-06 8.14068e-06 0)
(-3.24952e-07 1.24888e-05 0)
(-1.52966e-06 6.12234e-06 0)
(-2.32412e-06 9.72443e-07 0)
(-3.07521e-06 -1.95481e-06 0)
(-3.54736e-06 -3.44704e-06 0)
(-3.6549e-06 -3.53999e-06 0)
(-3.31986e-06 -2.38432e-06 0)
(-2.48918e-06 -2.17412e-07 0)
(-1.16495e-06 2.68197e-06 0)
(5.79767e-07 6.05399e-06 0)
(2.57562e-06 9.70948e-06 -1.15684e-19)
(4.72834e-06 1.34818e-05 1.15047e-19)
(6.92367e-06 1.70916e-05 0)
(8.9218e-06 2.05294e-05 0)
(1.05914e-05 2.37133e-05 0)
(1.18381e-05 2.64722e-05 0)
(1.27011e-05 2.85994e-05 0)
(1.34735e-05 2.97312e-05 0)
(1.44593e-05 2.94064e-05 0)
(1.56791e-05 2.75701e-05 0)
(1.72993e-05 2.42475e-05 0)
(1.98979e-05 1.88028e-05 -2.11466e-19)
(2.11023e-05 1.31494e-05 2.09345e-19)
(2.21927e-05 6.46859e-06 0)
(4.19274e-06 9.9659e-06 0)
(-3.17815e-07 1.35125e-05 0)
(-1.53362e-06 6.97867e-06 0)
(-2.41036e-06 1.85297e-06 0)
(-3.26134e-06 -1.14556e-06 0)
(-3.77884e-06 -2.76041e-06 5.69139e-20)
(-3.88918e-06 -3.00685e-06 -5.67746e-20)
(-3.51565e-06 -2.02887e-06 0)
(-2.5302e-06 -8.81718e-08 0)
(-9.09118e-07 2.5206e-06 -1.13705e-19)
(1.29668e-06 5.52625e-06 2.26799e-19)
(3.91765e-06 8.72169e-06 3.63857e-22)
(6.72401e-06 1.19599e-05 -1.12815e-19)
(9.67649e-06 1.50835e-05 0)
(1.26361e-05 1.82074e-05 0)
(1.52091e-05 2.14045e-05 1.11944e-19)
(1.72148e-05 2.4558e-05 -1.11162e-19)
(1.8675e-05 2.74907e-05 -2.21305e-19)
(1.95618e-05 2.99493e-05 -7.20528e-23)
(2.0123e-05 3.14397e-05 2.17853e-19)
(2.07699e-05 3.1404e-05 2.15322e-19)
(2.1689e-05 2.96196e-05 -2.13403e-19)
(2.35333e-05 2.55328e-05 2.09116e-19)
(2.4491e-05 2.00115e-05 -2.07122e-19)
(2.55914e-05 1.12842e-05 0)
(5.50423e-06 1.2366e-05 0)
(-2.90097e-07 1.44001e-05 0)
(-1.4383e-06 7.79348e-06 0)
(-2.31175e-06 2.72105e-06 0)
(-3.15643e-06 -3.47751e-07 0)
(-3.65307e-06 -2.09018e-06 0)
(-3.69956e-06 -2.53454e-06 0)
(-3.18244e-06 -1.79015e-06 0)
(-1.95599e-06 -1.31979e-07 0)
(1.73647e-08 2.12792e-06 -1.112e-19)
(2.67608e-06 4.69693e-06 1.10745e-19)
(5.84071e-06 7.33488e-06 0)
(9.40282e-06 9.97235e-06 0)
(1.34733e-05 1.25603e-05 0)
(1.77826e-05 1.50829e-05 0)
(2.17156e-05 1.7918e-05 0)
(2.49254e-05 2.12229e-05 0)
(2.72241e-05 2.49416e-05 0)
(2.85395e-05 2.88337e-05 -2.1613e-19)
(2.90371e-05 3.24552e-05 2.14447e-19)
(2.90865e-05 3.51127e-05 0)
(2.9247e-05 3.58322e-05 0)
(3.01815e-05 3.36546e-05 0)
(2.95792e-05 2.91774e-05 0)
(2.9778e-05 1.82476e-05 0)
(7.34689e-06 1.54084e-05 0)
(-2.36116e-07 1.5076e-05 0)
(-1.2217e-06 8.45015e-06 0)
(-1.9811e-06 3.42314e-06 0)
(-2.68763e-06 2.46807e-07 0)
(-3.02922e-06 -1.68223e-06 0)
(-2.87186e-06 -2.37028e-06 0)
(-2.06308e-06 -1.9202e-06 0)
(-4.63875e-07 -6.03594e-07 0)
(1.94235e-06 1.2599e-06 0)
(5.06502e-06 3.38015e-06 0)
(8.89399e-06 5.58265e-06 1.08534e-19)
(1.34489e-05 7.83083e-06 -1.08023e-19)
(1.8564e-05 1.00625e-05 0)
(2.41429e-05 1.20207e-05 0)
(2.97745e-05 1.41153e-05 1.07731e-19)
(3.47806e-05 1.69501e-05 -1.07055e-19)
(3.87212e-05 2.08275e-05 -2.1365e-19)
(4.12381e-05 2.59116e-05 2.12146e-19)
(4.23368e-05 3.18865e-05 0)
(4.22e-05 3.79399e-05 0)
(4.12697e-05 4.25321e-05 0)
(4.04437e-05 4.34977e-05 2.03987e-19)
(3.72326e-05 4.05839e-05 -4.02761e-19)
(3.55843e-05 2.74457e-05 1.98759e-19)
(9.86188e-06 1.92259e-05 0)
(-1.51883e-07 1.5464e-05 0)
(-8.69099e-07 8.82299e-06 0)
(-1.3813e-06 3.79348e-06 0)
(-1.79054e-06 4.41171e-07 0)
(-1.79831e-06 -1.75878e-06 0)
(-1.23944e-06 -2.79913e-06 0)
(6.266e-08 -2.73894e-06 -5.29452e-20)
(2.20437e-06 -1.85937e-06 5.27915e-20)
(5.17106e-06 -5.09916e-07 -1.05943e-19)
(9.00007e-06 1.17326e-06 1.0555e-19)
(1.37694e-05 3.0921e-06 -1.05931e-19)
(1.93578e-05 5.13239e-06 1.05456e-19)
(2.54635e-05 7.26993e-06 0)
(3.21408e-05 9.36857e-06 -1.05659e-19)
(3.93698e-05 1.11225e-05 1.05068e-19)
(4.64901e-05 1.32875e-05 0)
(5.28245e-05 1.66046e-05 0)
(5.77718e-05 2.18577e-05 -2.08563e-19)
(6.07465e-05 2.94187e-05 -2.34264e-22)
(6.1227e-05 3.88762e-05 2.05798e-19)
(5.92653e-05 4.82034e-05 0)
(5.57331e-05 5.40896e-05 -2.01314e-19)
(4.85128e-05 5.44942e-05 1.99652e-19)
(4.4043e-05 3.89533e-05 0)
(1.35669e-05 2.378e-05 -1.6548e-19)
(-3.80369e-08 1.55023e-05 0)
(-3.85119e-07 8.8029e-06 0)
(-5.05324e-07 3.68445e-06 0)
(-4.39168e-07 6.04956e-08 0)
(7.75731e-08 -2.52563e-06 0)
(1.27223e-06 -4.09281e-06 0)
(3.31182e-06 -4.66772e-06 0)
(6.1427e-06 -4.42158e-06 0)
(9.93274e-06 -3.5696e-06 0)
(1.48393e-05 -2.2409e-06 0)
(2.0752e-05 -5.4855e-07 0)
(2.75509e-05 1.38085e-06 0)
(3.50271e-05 3.54049e-06 0)
(4.27991e-05 6.10172e-06 0)
(5.10708e-05 8.75501e-06 0)
(5.99271e-05 1.13114e-05 0)
(6.8882e-05 1.44418e-05 0)
(7.71719e-05 1.91506e-05 0)
(8.35896e-05 2.605e-05 0)
(8.63103e-05 3.64722e-05 0)
(8.42158e-05 4.97442e-05 0)
(7.8103e-05 6.2238e-05 0)
(6.56703e-05 6.93202e-05 0)
(5.69909e-05 5.19457e-05 0)
(1.9283e-05 2.89735e-05 0)
(9.4082e-08 1.51473e-05 1.13753e-20)
(2.11474e-07 8.30472e-06 1.25669e-20)
(6.35914e-07 2.9626e-06 -2.5102e-20)
(1.35581e-06 -1.11321e-06 5.02463e-20)
(2.55883e-06 -4.35342e-06 -5.01691e-20)
(4.51102e-06 -6.68578e-06 0)
(7.47883e-06 -8.11805e-06 5.02405e-20)
(1.14766e-05 -8.73917e-06 5.03626e-20)
(1.65686e-05 -8.57396e-06 -2.00623e-19)
(2.27704e-05 -7.77246e-06 1.00117e-19)
(3.00053e-05 -6.40161e-06 1.00418e-19)
(3.81468e-05 -4.48425e-06 -1.00008e-19)
(4.70252e-05 -2.04876e-06 -1.00372e-19)
(5.64524e-05 9.5012e-07 2.00237e-19)
(6.618e-05 4.84137e-06 4.74494e-22)
(7.63321e-05 9.27408e-06 1.00741e-19)
(8.717e-05 1.38908e-05 -1.99358e-19)
(9.76557e-05 1.91874e-05 -1.99998e-19)
(0.000107087 2.58127e-05 3.98179e-19)
(0.000113979 3.38804e-05 -1.98129e-19)
(0.000115732 4.65613e-05 0)
(0.000110332 6.23593e-05 1.96165e-19)
(9.19044e-05 7.8286e-05 -3.8879e-19)
(7.78595e-05 6.3422e-05 1.9261e-19)
(2.91494e-05 3.77007e-05 1.65146e-19)
(2.18264e-07 1.43726e-05 0)
(8.69977e-07 7.25811e-06 0)
(1.92365e-06 1.48954e-06 0)
(3.33737e-06 -3.23122e-06 0)
(5.35961e-06 -7.31776e-06 0)
(8.36217e-06 -1.0433e-05 0)
(1.25669e-05 -1.27045e-05 0)
(1.79424e-05 -1.42316e-05 0)
(2.45301e-05 -1.50453e-05 0)
(3.23216e-05 -1.51627e-05 0)
(4.12284e-05 -1.45499e-05 0)
(5.10745e-05 -1.31249e-05 0)
(6.16272e-05 -1.07167e-05 0)
(7.27873e-05 -7.09297e-06 0)
(8.44189e-05 -2.01939e-06 0)
(9.61312e-05 4.86685e-06 0)
(0.000107896 1.32555e-05 0)
(0.000119757 2.2564e-05 0)
(0.000130224 3.35932e-05 -1.94791e-19)
(0.00013994 4.58649e-05 1.93515e-19)
(0.000147311 5.97452e-05 0)
(0.000147626 7.65719e-05 0)
(0.000131429 9.75946e-05 0)
(0.000123279 8.01602e-05 0)
(5.5415e-05 3.89011e-05 0)
(3.15852e-07 1.31855e-05 0)
(1.52724e-06 5.51682e-06 0)
(3.27609e-06 -9.96292e-07 0)
(5.53952e-06 -6.66073e-06 0)
(8.72835e-06 -1.1692e-05 0)
(1.3112e-05 -1.59075e-05 0)
(1.86453e-05 -1.94104e-05 0)
(2.54282e-05 -2.2215e-05 0)
(3.35269e-05 -2.42842e-05 0)
(4.29043e-05 -2.5545e-05 0)
(5.34645e-05 -2.5882e-05 -9.47841e-20)
(6.50974e-05 -2.51336e-05 9.443e-20)
(7.77347e-05 -2.30567e-05 0)
(9.12208e-05 -1.92908e-05 0)
(0.000105243 -1.34609e-05 0)
(0.00011935 -4.91036e-06 0)
(0.000133123 7.33614e-06 0)
(0.000146226 2.35349e-05 0)
(0.000159189 4.27602e-05 0)
(0.000171564 6.48491e-05 0)
(0.000182024 8.76567e-05 0)
(0.00018931 0.000109857 -1.90977e-19)
(0.000180926 0.000132018 1.89587e-19)
(0.000174246 0.000118427 0)
(0.000137206 -3.23095e-05 0)
(3.74407e-07 1.18795e-05 0)
(2.02845e-06 3.41087e-06 0)
(4.39507e-06 -3.99726e-06 0)
(7.62981e-06 -1.07372e-05 0)
(1.191e-05 -1.69837e-05 0)
(1.7349e-05 -2.2758e-05 0)
(2.40507e-05 -2.79731e-05 0)
(3.21085e-05 -3.25309e-05 0)
(4.15357e-05 -3.63187e-05 0)
(5.2283e-05 -3.91868e-05 0)
(6.42663e-05 -4.09446e-05 0)
(7.7377e-05 -4.13739e-05 0)
(9.1485e-05 -4.02415e-05 0)
(0.000106412 -3.7324e-05 0)
(0.000122007 -3.22521e-05 0)
(0.000138253 -2.44195e-05 0)
(0.000154785 -1.28279e-05 0)
(0.000170522 3.61698e-06 0)
(0.000184295 2.59827e-05 0)
(0.000196069 5.32706e-05 0)
(0.000205559 8.51272e-05 0)
(0.000207476 0.000120286 0)
(0.00019087 0.000155757 0)
(0.000139685 0.000193808 0)
(-0.000108501 7.00668e-05 0)
(3.95268e-07 1.05746e-05 0)
(2.36003e-06 1.14119e-06 0)
(5.28446e-06 -7.19501e-06 0)
(9.25554e-06 -1.49477e-05 0)
(1.4345e-05 -2.24995e-05 0)
(2.06615e-05 -2.9734e-05 0)
(2.83098e-05 -3.65245e-05 0)
(3.73489e-05 -4.27501e-05 0)
(4.77838e-05 -4.82432e-05 0)
(5.95697e-05 -5.27913e-05 0)
(7.26246e-05 -5.616e-05 0)
(8.68307e-05 -5.81026e-05 0)
(0.00010204 -5.83547e-05 0)
(0.000118064 -5.66119e-05 0)
(0.000134709 -5.24707e-05 0)
(0.000151794 -4.54366e-05 0)
(0.000169027 -3.49416e-05 0)
(0.000186053 -1.9932e-05 0)
(0.000201625 1.3597e-06 0)
(0.000214301 3.07313e-05 0)
(0.000222574 6.87677e-05 0)
(0.000221256 0.000116111 0)
(0.000201656 0.000177393 0)
(0.00015758 0.000263433 0)
(8.27156e-05 0.000388875 0)
(4.22677e-07 9.11164e-06 0)
(2.65436e-06 -1.53656e-06 0)
(6.08756e-06 -1.10008e-05 0)
(1.07355e-05 -1.99187e-05 0)
(1.66121e-05 -2.87444e-05 0)
(2.38037e-05 -3.73488e-05 0)
(3.23895e-05 -4.5594e-05 0)
(4.24097e-05 -5.33142e-05 0)
(5.38619e-05 -6.02897e-05 0)
(6.66995e-05 -6.62634e-05 0)
(8.08359e-05 -7.09659e-05 0)
(9.61483e-05 -7.41184e-05 0)
(0.00011248 -7.54173e-05 0)
(0.000129633 -7.45064e-05 0)
(0.000147365 -7.09253e-05 0)
(0.000165392 -6.40765e-05 0)
(0.000183348 -5.3156e-05 0)
(0.000200755 -3.69911e-05 0)
(0.000216688 -1.40805e-05 0)
(0.000229508 1.8141e-05 0)
(0.000236953 6.22745e-05 0)
(0.000235613 0.000121761 0)
(0.000220256 0.00020433 0)
(0.000187638 0.000323772 0)
(0.000136169 0.000499241 0)
(4.45055e-07 7.52427e-06 0)
(2.9036e-06 -4.56872e-06 0)
(6.7872e-06 -1.53492e-05 0)
(1.20571e-05 -2.55637e-05 0)
(1.86807e-05 -3.57402e-05 0)
(2.67136e-05 -4.57685e-05 0)
(3.62114e-05 -5.54922e-05 0)
(4.71975e-05 -6.47072e-05 0)
(5.96586e-05 -7.31518e-05 0)
(7.35407e-05 -8.05311e-05 0)
(8.87529e-05 -8.65399e-05 0)
(0.000105167 -9.08635e-05 0)
(0.000122618 -9.31597e-05 0)
(0.000140892 -9.30268e-05 0)
(0.000159719 -8.99497e-05 0)
(0.000178753 -8.3231e-05 0)
(0.000197549 -7.18975e-05 0)
(0.000215524 -5.45635e-05 0)
(0.000231815 -2.93217e-05 0)
(0.00024507 6.60736e-06 0)
(0.000253491 5.69821e-05 0)
(0.000255034 0.000126835 0)
(0.000247223 0.000223931 0)
(0.00022895 0.000360342 0)
(0.000201063 0.000551423 0)
(4.63695e-07 5.82243e-06 0)
(3.12066e-06 -7.92687e-06 0)
(7.40978e-06 -2.01963e-05 0)
(1.32523e-05 -3.18359e-05 0)
(2.05786e-05 -4.34556e-05 0)
(2.94144e-05 -5.49687e-05 0)
(3.9793e-05 -6.62036e-05 0)
(5.17217e-05 -7.6927e-05 0)
(6.51745e-05 -8.68421e-05 0)
(8.00911e-05 -9.56175e-05 0)
(9.63762e-05 -0.000102911 0)
(0.000113898 -0.00010837 0)
(0.000132485 -0.000111608 0)
(0.000151917 -0.00011217 0)
(0.000171911 -0.000109475 0)
(0.000192107 -0.000102733 0)
(0.000212047 -9.08337e-05 0)
(0.000231156 -7.22018e-05 0)
(0.000248701 -4.46388e-05 0)
(0.000263745 -5.07832e-06 0)
(0.000275234 5.05648e-05 0)
(0.000282341 0.000127482 0)
(0.000284543 0.000232774 0)
(0.000282765 0.00037591 0)
(0.000279864 0.000568381 0)
(4.78653e-07 4.02203e-06 0)
(3.30753e-06 -1.15801e-05 0)
(7.9584e-06 -2.55111e-05 0)
(1.43232e-05 -3.87195e-05 0)
(2.2301e-05 -5.18985e-05 0)
(3.18922e-05 -6.49875e-05 0)
(4.31098e-05 -7.78057e-05 0)
(5.59451e-05 -9.00965e-05 0)
(7.03627e-05 -0.000101532 0)
(8.62963e-05 -0.000111748 0)
(0.000103649 -0.000120366 0)
(0.000122289 -0.000126997 0)
(0.000142048 -0.00013121 0)
(0.000162711 -0.000132497 0)
(0.000184012 -0.000130209 0)
(0.000205619 -0.000123475 0)
(0.000227131 -0.00011109 0)
(0.000248083 -9.13728e-05 0)
(0.000267967 -6.20124e-05 0)
(0.000286303 -1.99037e-05 0)
(0.000302731 3.89297e-05 0)
(0.000317417 0.000119152 0)
(0.000331254 0.000226658 0)
(0.000346647 0.000368584 0)
(0.000368231 0.000552861 0)
(4.90225e-07 2.13895e-06 0)
(3.46522e-06 -1.54922e-05 0)
(8.43614e-06 -3.12469e-05 0)
(1.52714e-05 -4.61646e-05 0)
(2.38467e-05 -6.10198e-05 0)
(3.41401e-05 -7.57803e-05 0)
(4.61469e-05 -9.02612e-05 0)
(5.98465e-05 -0.000104187 0)
(7.51946e-05 -0.000117203 0)
(9.21227e-05 -0.000128916 0)
(0.000110535 -0.000138918 0)
(0.000130306 -0.000146784 0)
(0.000151281 -0.000152047 0)
(0.000173269 -0.000154153 0)
(0.000196043 -0.000152403 0)
(0.000219335 -0.000145872 0)
(0.000242854 -0.000133312 0)
(0.000266308 -0.00011303 0)
(0.000289467 -8.27623e-05 0)
(0.000312288 -3.95814e-05 0)
(0.000335019 2.00995e-05 0)
(0.000358538 0.000100235 0)
(0.00038467 0.000205276 0)
(0.000416672 0.000340331 0)
(0.000459984 0.0005104 0)
(4.98695e-07 1.87904e-07 0)
(3.59589e-06 -1.96284e-05 0)
(8.84549e-06 -3.7356e-05 0)
(1.61008e-05 -5.41171e-05 0)
(2.52176e-05 -7.07631e-05 0)
(3.61566e-05 -8.72922e-05 0)
(4.88993e-05 -0.000103519 0)
(6.34143e-05 -0.000119154 0)
(7.9653e-05 -0.000133821 0)
(9.7546e-05 -0.000147102 0)
(0.000117004 -0.000158565 0)
(0.000137914 -0.000167758 0)
(0.000160145 -0.000174187 0)
(0.000183541 -0.000177268 0)
(0.000207934 -0.000176277 0)
(0.000233146 -0.000170274 0)
(0.000259018 -0.000158026 0)
(0.000285455 -0.000137905 0)
(0.000312506 -0.000107816 0)
(0.000340497 -6.51484e-05 0)
(0.00037018 -6.84804e-06 0)
(0.000402894 7.03126e-05 0)
(0.000440974 0.000169428 0)
(0.000487962 0.000293842 0)
(0.000549291 0.000446302 0)
(5.0441e-07 -1.81763e-06 0)
(3.70121e-06 -2.39557e-05 0)
(9.19124e-06 -4.37929e-05 0)
(1.68162e-05 -6.25234e-05 0)
(2.64191e-05 -8.10711e-05 0)
(3.79459e-05 -9.9466e-05 0)
(5.1367e-05 -0.000117525 0)
(6.66444e-05 -0.000134949 0)
(8.37261e-05 -0.000151345 0)
(0.000102546 -0.000166278 0)
(0.000123025 -0.000179298 0)
(0.000145069 -0.000189935 0)
(0.000168574 -0.00019768 0)
(0.000193433 -0.000201941 0)
(0.000219541 -0.000201995 0)
(0.00024682 -0.000196925 0)
(0.000275248 -0.000185562 0)
(0.000304915 -0.000166415 0)
(0.000336111 -0.000137624 0)
(0.000369448 -9.69685e-05 0)
(0.000406012 -4.19682e-05 0)
(0.000447463 2.99009e-05 0)
(0.000496289 0.000120714 0)
(0.000555958 0.000232273 0)
(0.000631372 0.000365719 0)
(5.07675e-07 -3.86549e-06 0)
(3.78397e-06 -2.84435e-05 0)
(9.47735e-06 -5.05139e-05 0)
(1.74249e-05 -7.13314e-05 0)
(2.74588e-05 -9.1887e-05 0)
(3.95147e-05 -0.000112243 0)
(5.35551e-05 -0.000132222 0)
(6.95363e-05 -0.000151519 0)
(8.7407e-05 -0.00016973 0)
(0.000107106 -0.000186409 0)
(0.000128567 -0.000201094 0)
(0.000151718 -0.00021331 0)
(0.000176489 -0.000222548 0)
(0.000202819 -0.000228224 0)
(0.000230672 -0.00022964 0)
(0.000260064 -0.000225938 0)
(0.000291093 -0.000216051 0)
(0.000324005 -0.000198663 0)
(0.000359273 -0.000172193 0)
(0.000397704 -0.000134825 0)
(0.000440566 -8.46267e-05 0)
(0.000489686 -1.97459e-05 0)
(0.000547508 6.12205e-05 0)
(0.000617234 0.00015891 0)
(0.000702993 0.000273297 0)
(5.08839e-07 -5.94474e-06 0)
(3.8461e-06 -3.30636e-05 0)
(9.70979e-06 -5.7478e-05 0)
(1.79341e-05 -8.04907e-05 0)
(2.83461e-05 -0.000103154 0)
(4.08729e-05 -0.000125564 0)
(5.54707e-05 -0.00014755 0)
(7.20936e-05 -0.000168804 0)
(9.0691e-05 -0.00018892 0)
(0.00011121 -0.000207443 0)
(0.000133599 -0.000223911 0)
(0.000157807 -0.000237854 0)
(0.000183799 -0.000248771 0)
(0.000211561 -0.000256107 0)
(0.000241119 -0.000259209 0)
(0.000272568 -0.000257298 0)
(0.000306105 -0.000249435 0)
(0.000342092 -0.0002345 0)
(0.00038112 -0.000211196 0)
(0.000424104 -0.000178098 0)
(0.000472375 -0.000133763 0)
(0.000527761 -7.69215e-05 0)
(0.000592592 -6.72377e-06 0)
(0.000669713 7.68897e-05 0)
(0.000762493 0.000173018 0)
(5.08111e-07 -8.04571e-06 0)
(3.89056e-06 -3.77903e-05 0)
(9.89314e-06 -6.4647e-05 0)
(1.83526e-05 -8.99535e-05 0)
(2.90911e-05 -0.000114818 0)
(4.20307e-05 -0.000139368 0)
(5.71232e-05 -0.000163445 0)
(7.43206e-05 -0.000186741 0)
(9.35759e-05 -0.000208849 0)
(0.000114844 -0.000229317 0)
(0.000138088 -0.000247689 0)
(0.00016328 -0.000263505 0)
(0.000190416 -0.000276289 0)
(0.000219523 -0.000285522 0)
(0.00025068 -0.000290614 0)
(0.000284045 -0.000290878 0)
(0.000319887 -0.000285512 0)
(0.00035864 -0.000273596 0)
(0.000400962 -0.000254104 0)
(0.000447799 -0.000225962 0)
(0.000500459 -0.000188147 0)
(0.000560658 -0.000139855 0)
(0.000630525 -8.0709e-05 0)
(0.000712541 -1.09678e-05 0)
(0.000809464 6.81319e-05 0)
(5.05782e-07 -1.016e-05 0)
(3.91905e-06 -4.2601e-05 0)
(1.00333e-05 -7.19857e-05 0)
(1.86874e-05 -9.96742e-05 0)
(2.97035e-05 -0.000126825 0)
(4.29986e-05 -0.000153595 0)
(5.8521e-05 -0.00017984 0)
(7.62227e-05 -0.000205257 0)
(9.60595e-05 -0.000229443 0)
(0.000117995 -0.000251954 0)
(0.000142006 -0.000272343 0)
(0.000168087 -0.000290174 0)
(0.000196257 -0.000305 0)
(0.000226581 -0.000316349 0)
(0.000259177 -0.000323699 0)
(0.000294247 -0.000326462 0)
(0.000332109 -0.000323976 0)
(0.000373234 -0.000315508 0)
(0.000418296 -0.000300277 0)
(0.000468222 -0.000277511 0)
(0.000524238 -0.000246534 0)
(0.000587892 -0.000206903 0)
(0.000661044 -0.000158576 0)
(0.000745809 -0.000102089 0)
(0.000844437 -3.87078e-05 0)
(5.01986e-07 -1.22802e-05 0)
(3.93402e-06 -4.74752e-05 0)
(1.01337e-05 -7.94615e-05 0)
(1.8946e-05 -0.00010961 0)
(3.01917e-05 -0.000139121 0)
(4.3785e-05 -0.000168185 0)
(5.9672e-05 -0.000196668 0)
(7.78037e-05 -0.000224279 0)
(9.814e-05 -0.00025062 0)
(0.000120652 -0.000275261 0)
(0.000145328 -0.000297774 0)
(0.00017218 -0.000317746 0)
(0.000201251 -0.000334768 0)
(0.000232628 -0.00034842 0)
(0.000266459 -0.000358251 0)
(0.000302977 -0.000363773 0)
(0.00034252 -0.000364453 0)
(0.000385569 -0.00035973 0)
(0.000432784 -0.000349034 0)
(0.000485033 -0.000331845 0)
(0.000543426 -0.000307761 0)
(0.000609321 -0.000276613 0)
(0.000684298 -0.000238589 0)
(0.000770104 -0.000194377 0)
(0.000868543 -0.00014528 0)
(4.96948e-07 -1.43999e-05 0)
(3.93635e-06 -5.23944e-05 0)
(1.01986e-05 -8.7044e-05 0)
(1.9133e-05 -0.000119718 0)
(3.05623e-05 -0.000151656 0)
(4.43973e-05 -0.000183074 0)
(6.05816e-05 -0.000213858 0)
(7.9067e-05 -0.000243724 0)
(9.98149e-05 -0.000272289 0)
(0.000122804 -0.000299138 0)
(0.000148031 -0.000323865 0)
(0.000175522 -0.000346086 0)
(0.000205336 -0.000365433 0)
(0.000237578 -0.000381537 0)
(0.000272413 -0.000394022 0)
(0.000310086 -0.000402491 0)
(0.000350941 -0.000406532 0)
(0.000395447 -0.00040573 0)
(0.000444223 -0.000399697 0)
(0.00049806 -0.000388111 0)
(0.000557936 -0.000370786 0)
(0.000625014 -0.000347749 0)
(0.000700611 -0.000319344 0)
(0.000786141 -0.000286329 0)
(0.000883017 -0.000249963 0)
(4.90692e-07 -1.6513e-05 0)
(3.9277e-06 -5.73416e-05 0)
(1.02296e-05 -9.47048e-05 0)
(1.9253e-05 -0.00012996 0)
(3.08202e-05 -0.000164377 0)
(4.48402e-05 -0.000198202 0)
(6.12547e-05 -0.000231336 0)
(8.00138e-05 -0.000263509 0)
(0.000101082 -0.000294354 0)
(0.000124442 -0.000323474 0)
(0.000150098 -0.000350487 0)
(0.000178084 -0.000375041 0)
(0.00020847 -0.00039681 0)
(0.00024137 -0.000415479 0)
(0.000276958 -0.000430738 0)
(0.000315478 -0.000442275 0)
(0.000357264 -0.000449785 0)
(0.000402758 -0.000452979 0)
(0.000452524 -0.000451615 0)
(0.000507264 -0.000445529 0)
(0.000567823 -0.000434692 0)
(0.000635176 -0.000419274 0)
(0.000710402 -0.000399714 0)
(0.000794625 -0.000376791 0)
(0.000888938 -0.000351686 0)
(4.83373e-07 -1.86141e-05 0)
(3.90819e-06 -6.2301e-05 0)
(1.02295e-05 -0.000102416 0)
(1.93081e-05 -0.000140295 0)
(3.09689e-05 -0.000177234 0)
(4.51178e-05 -0.000213507 0)
(6.16935e-05 -0.00024903 0)
(8.0646e-05 -0.000283549 0)
(0.00010194 -0.000316714 0)
(0.00012556 -0.00034815 0)
(0.000151515 -0.000377501 0)
(0.000179845 -0.000404449 0)
(0.000210622 -0.000428707 0)
(0.000243966 -0.00045001 0)
(0.000280047 -0.000468112 0)
(0.000319101 -0.000482776 0)
(0.000361441 -0.000493788 0)
(0.00040747 -0.000500966 0)
(0.00045769 -0.00050418 0)
(0.000512711 -0.000503391 0)
(0.000573246 -0.000498683 0)
(0.0006401 -0.000490321 0)
(0.000714141 -0.000478796 0)
(0.000796248 -0.000464879 0)
(0.000887247 -0.000449655 0)
(4.74965e-07 -2.06979e-05 0)
(3.87891e-06 -6.72573e-05 0)
(1.01983e-05 -0.000110152 0)
(1.93008e-05 -0.000150687 0)
(3.10107e-05 -0.000190178 0)
(4.52321e-05 -0.000228925 0)
(6.1901e-05 -0.000266863 0)
(8.09647e-05 -0.000303753 0)
(0.000102388 -0.000339264 0)
(0.000126156 -0.000373045 0)
(0.000152279 -0.000404766 0)
(0.000180796 -0.000434141 0)
(0.000211783 -0.000460921 0)
(0.000245352 -0.000484891 0)
(0.000281668 -0.000505857 0)
(0.000320948 -0.000523652 0)
(0.000363479 -0.000538135 0)
(0.000409617 -0.00054921 0)
(0.000459799 -0.000556839 0)
(0.000514543 -0.000561071 0)