/*--------------------------------*- C++ -*----------------------------------*\
  =========                 |
  \\      /  F ield         | OpenFOAM: The Open Source CFD Toolbox
   \\    /   O peration     | Website:  https://openfoam.org
    \\  /    A nd           | Version:  13
     \\/     M anipulation  |
\*---------------------------------------------------------------------------*/
FoamFile
{
    format      ascii;
    class       volScalarField;
    location    "3";
    object      p;
}
// * * * * * * * * * * * * * * * * * * * * * * * * * * * * * * * * * * * * * //

dimensions      [0 2 -2 0 0 0 0];

internalField   nonuniform List<scalar> 
6440
(
0.00145536
0.00145538
0.00145551
0.00145571
0.0014559
0.001456
0.0014559
0.00145548
0.00145465
0.00145329
0.00145133
0.00144871
0.00144542
0.00144149
0.00143703
0.00143215
0.00142702
0.00142179
0.00141664
0.00141166
0.00140691
0.00140238
0.00139818
0.00139423
0.00139089
0.00145517
0.00145531
0.00145562
0.00145608
0.00145667
0.00145728
0.00145782
0.00145819
0.00145826
0.00145793
0.00145706
0.00145555
0.00145333
0.00145034
0.00144654
0.00144196
0.00143665
0.0014307
0.00142422
0.00141732
0.00141012
0.00140273
0.00139549
0.00138872
0.00138284
0.00145466
0.00145494
0.00145549
0.00145631
0.00145737
0.00145858
0.00145985
0.00146107
0.00146212
0.00146284
0.00146309
0.0014627
0.00146152
0.00145943
0.00145632
0.00145211
0.00144679
0.0014404
0.001433
0.00142469
0.00141567
0.00140614
0.00139662
0.00138787
0.00138068
0.00145341
0.00145384
0.00145464
0.00145581
0.00145734
0.00145912
0.00146106
0.00146304
0.00146491
0.00146652
0.0014677
0.00146825
0.00146795
0.00146663
0.00146412
0.0014603
0.00145509
0.0014485
0.0014406
0.00143147
0.00142134
0.00141047
0.00139942
0.00138925
0.00138098
0.00145114
0.0014517
0.00145273
0.00145425
0.00145622
0.00145854
0.00146111
0.0014638
0.00146645
0.0014689
0.00147093
0.00147234
0.00147288
0.00147232
0.00147046
0.00146712
0.0014622
0.00145569
0.00144763
0.0014381
0.00142729
0.0014155
0.0014033
0.0013919
0.00138259
0.00144771
0.0014484
0.00144965
0.00145149
0.00145388
0.00145672
0.0014599
0.00146328
0.00146669
0.00146995
0.00147284
0.00147514
0.00147655
0.00147683
0.00147572
0.00147302
0.00146861
0.00146242
0.00145448
0.00144482
0.00143357
0.00142107
0.00140788
0.00139535
0.00138505
0.00144308
0.00144389
0.00144535
0.0014475
0.00145029
0.00145363
0.0014574
0.00146145
0.00146561
0.00146968
0.00147345
0.00147666
0.00147903
0.00148025
0.00148005
0.00147818
0.00147448
0.00146884
0.00146123
0.00145165
0.0014401
0.00142699
0.00141286
0.00139924
0.00138797
0.00143728
0.0014382
0.00143985
0.00144228
0.00144545
0.00144926
0.00145359
0.00145829
0.00146319
0.00146808
0.00147274
0.00147692
0.0014803
0.00148257
0.00148341
0.00148255
0.00147979
0.00147493
0.00146787
0.00145853
0.00144682
0.00143317
0.00141814
0.00140343
0.00139117
0.00143035
0.00143137
0.00143319
0.00143587
0.00143938
0.00144362
0.00144847
0.00145379
0.0014594
0.00146511
0.00147068
0.00147585
0.00148029
0.00148368
0.0014857
0.00148604
0.00148444
0.00148061
0.00147433
0.00146543
0.00145373
0.00143965
0.00142375
0.00140791
0.00139464
0.00142239
0.00142348
0.00142544
0.00142833
0.00143214
0.00143675
0.00144207
0.00144796
0.00145425
0.00146073
0.00146719
0.00147337
0.0014789
0.00148349
0.00148679
0.00148853
0.00148831
0.00148575
0.00148052
0.00147232
0.00146087
0.0014465
0.00142978
0.00141279
0.00139847
0.0014135
0.00141464
0.00141669
0.00141975
0.00142378
0.0014287
0.00143442
0.0014408
0.00144769
0.0014549
0.00146222
0.00146936
0.00147602
0.00148187
0.00148657
0.00148983
0.00149119
0.00149015
0.00148626
0.00147911
0.00146825
0.00145381
0.00143637
0.00141821
0.00140278
0.0014038
0.00140497
0.00140707
0.00141022
0.0014144
0.00141953
0.00142554
0.00143232
0.00143972
0.00144757
0.00145568
0.00146376
0.00147152
0.00147863
0.00148482
0.00148971
0.00149279
0.00149352
0.00149133
0.00148563
0.0014758
0.00146163
0.00144364
0.00142434
0.00140776
0.00139344
0.00139459
0.00139669
0.00139987
0.00140411
0.00140934
0.00141552
0.00142255
0.00143033
0.00143869
0.00144748
0.00145641
0.00146521
0.00147357
0.00148127
0.00148784
0.00149279
0.00149553
0.0014954
0.00149163
0.00148335
0.00146992
0.00145169
0.00143137
0.00141365
0.00138258
0.00138369
0.00138574
0.00138886
0.00139304
0.00139826
0.00140445
0.00141157
0.00141953
0.00142822
0.00143751
0.00144712
0.00145685
0.00146641
0.00147556
0.00148385
0.00149079
0.00149577
0.00149805
0.0014967
0.00149058
0.00147854
0.00146064
0.00143962
0.0014209
0.00137139
0.00137242
0.00137436
0.00137735
0.00138138
0.00138642
0.00139246
0.00139947
0.00140738
0.00141615
0.00142566
0.00143568
0.00144611
0.00145672
0.00146721
0.00147721
0.00148625
0.0014937
0.00149874
0.0015003
0.00149704
0.0014874
0.00147073
0.00144968
0.00143028
0.00136005
0.00136099
0.00136277
0.00136554
0.0013693
0.00137403
0.00137974
0.0013864
0.001394
0.0014025
0.00141186
0.00142196
0.00143272
0.00144406
0.00145566
0.00146726
0.0014784
0.00148846
0.00149659
0.00150167
0.00150216
0.00149621
0.00148228
0.00146241
0.00144306
0.00134877
0.00134958
0.00135115
0.00135363
0.00135701
0.00136129
0.00136647
0.00137255
0.00137954
0.00138742
0.00139621
0.00140589
0.00141647
0.00142796
0.00144027
0.00145308
0.00146606
0.00147871
0.00149023
0.00149946
0.00150483
0.00150423
0.00149542
0.00147913
0.00146144
0.00133774
0.0013384
0.00133972
0.00134184
0.00134474
0.00134842
0.00135289
0.00135816
0.00136423
0.00137113
0.00137891
0.00138766
0.00139742
0.00140835
0.00142051
0.00143373
0.00144783
0.00146255
0.00147733
0.00149121
0.00150278
0.00150986
0.00150954
0.00150178
0.00148962
0.00132718
0.00132768
0.00132871
0.0013304
0.00133274
0.00133571
0.00133933
0.0013436
0.00134854
0.00135418
0.0013606
0.00136794
0.00137632
0.00138591
0.00139683
0.0014092
0.00142312
0.0014386
0.00145558
0.00147379
0.00149256
0.00151028
0.00152363
0.00153215
0.0015349
0.00131724
0.00131758
0.00131835
0.00131964
0.00132143
0.00132372
0.00132651
0.0013298
0.00133362
0.00133798
0.00134293
0.00134866
0.00135555
0.00136344
0.0013726
0.0013833
0.00139581
0.00141052
0.00142788
0.00144847
0.00147294
0.00150175
0.00153402
0.00157041
0.00160969
0.00130799
0.00130826
0.00130888
0.00130993
0.00131141
0.00131332
0.00131564
0.00131839
0.00132159
0.00132526
0.00132947
0.00133438
0.00134011
0.00134693
0.001355
0.00136455
0.00137593
0.00138961
0.00140624
0.00142676
0.00145246
0.00148537
0.00153002
0.00159781
0.00171747
0.00129909
0.00129935
0.00129995
0.00130098
0.00130242
0.00130429
0.00130657
0.00130929
0.00131245
0.00131611
0.00132033
0.00132523
0.00133095
0.00133765
0.00134552
0.00135484
0.00136596
0.00137939
0.00139579
0.00141607
0.0014416
0.00147468
0.0015196
0.00158392
0.00167528
0.00129053
0.0012908
0.00129142
0.00129246
0.00129393
0.00129583
0.00129816
0.00130093
0.00130416
0.0013079
0.00131221
0.00131719
0.00132297
0.0013297
0.00133757
0.00134683
0.00135783
0.00137099
0.00138688
0.00140628
0.00143027
0.00146044
0.00149904
0.00154841
0.00160707
0.00128229
0.00128258
0.00128321
0.00128427
0.00128575
0.00128766
0.00129001
0.0012928
0.00129605
0.0012998
0.00130412
0.00130907
0.00131478
0.00132139
0.00132905
0.001338
0.00134851
0.00136091
0.00137565
0.00139325
0.00141436
0.00143975
0.00147008
0.00150502
0.00154111
0.00127438
0.00127467
0.00127531
0.00127636
0.00127783
0.00127972
0.00128203
0.00128478
0.00128798
0.00129165
0.00129586
0.00130065
0.00130613
0.00131241
0.00131963
0.00132797
0.00133761
0.00134882
0.00136184
0.00137696
0.00139444
0.00141442
0.00143666
0.00145992
0.00148108
0.00126677
0.00126707
0.0012677
0.00126873
0.00127016
0.001272
0.00127424
0.00127689
0.00127997
0.00128348
0.00128747
0.00129199
0.00129711
0.00130291
0.00130951
0.001317
0.00132554
0.00133525
0.00134624
0.0013586
0.00137231
0.00138712
0.00140242
0.00141684
0.00142804
0.00125948
0.00125978
0.00126039
0.00126138
0.00126275
0.00126451
0.00126664
0.00126915
0.00127205
0.00127533
0.00127904
0.00128319
0.00128784
0.00129305
0.00129889
0.00130541
0.00131269
0.00132076
0.00132964
0.00133925
0.00134939
0.00135967
0.00136935
0.00137723
0.00138161
0.0012525
0.0012528
0.00125338
0.00125432
0.00125561
0.00125726
0.00125925
0.00126158
0.00126425
0.00126725
0.00127061
0.00127433
0.00127845
0.00128299
0.00128798
0.00129346
0.00129942
0.00130585
0.00131267
0.00131971
0.00132669
0.00133317
0.00133844
0.00134151
0.00134116
0.00124584
0.00124612
0.00124667
0.00124754
0.00124874
0.00125025
0.00125208
0.0012542
0.0012566
0.00125929
0.00126226
0.00126551
0.00126904
0.00127287
0.001277
0.00128142
0.00128608
0.00129093
0.00129583
0.00130058
0.00130486
0.00130824
0.0013101
0.00130966
0.00130602
0.00123948
0.00123975
0.00124026
0.00124105
0.00124214
0.00124351
0.00124515
0.00124704
0.00124916
0.0012515
0.00125406
0.0012568
0.00125974
0.00126285
0.00126612
0.0012695
0.00127293
0.00127631
0.0012795
0.00128226
0.00128429
0.00128519
0.00128445
0.00128145
0.00127553
0.00123345
0.0012337
0.00123416
0.00123487
0.00123584
0.00123705
0.00123849
0.00124013
0.00124196
0.00124394
0.00124607
0.00124831
0.00125065
0.00125305
0.00125548
0.00125789
0.00126018
0.00126225
0.00126393
0.00126501
0.0012652
0.00126415
0.00126144
0.00125659
0.0012491
0.00122774
0.00122797
0.00122837
0.001229
0.00122984
0.00123089
0.00123212
0.00123351
0.00123503
0.00123665
0.00123835
0.00124009
0.00124185
0.00124358
0.00124523
0.00124673
0.001248
0.00124891
0.00124931
0.00124898
0.00124768
0.00124512
0.00124093
0.00123477
0.00122624
0.00122236
0.00122256
0.00122291
0.00122344
0.00122416
0.00122504
0.00122606
0.00122719
0.00122841
0.00122967
0.00123096
0.00123222
0.00123343
0.00123452
0.00123546
0.00123615
0.00123651
0.00123642
0.00123573
0.00123425
0.00123177
0.00122804
0.00122277
0.00121569
0.0012065
0.00121731
0.00121748
0.00121778
0.00121822
0.00121881
0.00121952
0.00122033
0.00122121
0.00122213
0.00122305
0.00122394
0.00122475
0.00122544
0.00122596
0.00122624
0.00122621
0.00122579
0.00122484
0.00122325
0.00122084
0.00121743
0.00121282
0.00120677
0.00119908
0.00118951
0.0012126
0.00121274
0.00121298
0.00121333
0.00121379
0.00121434
0.00121494
0.00121558
0.00121622
0.00121682
0.00121733
0.00121772
0.00121794
0.00121793
0.00121764
0.00121698
0.00121588
0.00121422
0.00121189
0.00120874
0.00120462
0.00119935
0.00119276
0.00118468
0.00117494
0.00120823
0.00120834
0.00120852
0.00120878
0.00120912
0.00120951
0.00120992
0.00121033
0.0012107
0.00121099
0.00121116
0.00121117
0.00121096
0.00121049
0.00120969
0.00120849
0.00120681
0.00120457
0.00120164
0.00119791
0.00119325
0.00118751
0.00118057
0.00117227
0.00116251
0.00120419
0.00120428
0.00120441
0.00120458
0.0012048
0.00120504
0.00120527
0.00120546
0.00120558
0.00120559
0.00120544
0.0012051
0.00120452
0.00120364
0.0012024
0.00120074
0.0011986
0.00119587
0.00119247
0.0011883
0.00118324
0.00117719
0.00117003
0.00116166
0.00115198
0.0012005
0.00120057
0.00120064
0.00120073
0.00120084
0.00120093
0.00120099
0.00120098
0.00120087
0.00120062
0.0012002
0.00119955
0.00119863
0.0011974
0.00119579
0.00119375
0.00119121
0.0011881
0.00118434
0.00117984
0.00117451
0.00116825
0.00116099
0.00115265
0.00114314
0.00119715
0.00119719
0.00119721
0.00119723
0.00119723
0.00119719
0.00119709
0.0011969
0.00119658
0.0011961
0.00119543
0.00119451
0.0011933
0.00119176
0.00118984
0.00118749
0.00118464
0.00118124
0.0011772
0.00117246
0.00116696
0.0011606
0.00115333
0.00114508
0.0011358
0.00119413
0.00119415
0.00119412
0.00119407
0.00119398
0.00119382
0.00119358
0.00119322
0.00119271
0.00119203
0.00119113
0.00118997
0.00118852
0.00118673
0.00118456
0.00118195
0.00117886
0.00117523
0.001171
0.00116611
0.0011605
0.00115412
0.0011469
0.00113881
0.00112981
0.00119145
0.00119144
0.00119138
0.00119126
0.00119107
0.00119081
0.00119044
0.00118993
0.00118926
0.0011884
0.0011873
0.00118595
0.00118429
0.00118229
0.00117991
0.0011771
0.00117382
0.00117003
0.00116567
0.00116069
0.00115505
0.0011487
0.0011416
0.00113371
0.00112501
0.00118909
0.00118906
0.00118896
0.00118878
0.00118852
0.00118816
0.00118767
0.00118703
0.00118622
0.0011852
0.00118394
0.00118241
0.00118058
0.00117841
0.00117587
0.00117291
0.0011695
0.0011656
0.00116116
0.00115615
0.00115053
0.00114426
0.00113731
0.00112966
0.00112129
0.00118705
0.00118701
0.00118687
0.00118664
0.00118631
0.00118585
0.00118526
0.00118451
0.00118357
0.00118242
0.00118102
0.00117936
0.00117739
0.00117508
0.00117242
0.00116935
0.00116585
0.00116188
0.00115742
0.00115242
0.00114686
0.00114071
0.00113394
0.00112655
0.00111851
0.00118532
0.00118526
0.00118509
0.00118482
0.00118442
0.00118389
0.00118322
0.00118236
0.00118132
0.00118005
0.00117854
0.00117676
0.00117468
0.00117228
0.00116952
0.00116638
0.00116282
0.00115883
0.00115438
0.00114943
0.00114396
0.00113796
0.0011314
0.00112427
0.00111658
0.00118389
0.00118382
0.00118362
0.00118331
0.00118286
0.00118227
0.00118151
0.00118057
0.00117944
0.00117808
0.00117647
0.0011746
0.00117244
0.00116996
0.00116714
0.00116396
0.00116039
0.0011564
0.00115198
0.00114711
0.00114176
0.00113593
0.00112959
0.00112275
0.00111541
0.00118276
0.00118267
0.00118245
0.0011821
0.0011816
0.00118095
0.00118013
0.00117913
0.00117791
0.00117648
0.0011748
0.00117286
0.00117064
0.00116811
0.00116526
0.00116206
0.00115849
0.00115454
0.00115018
0.00114541
0.0011402
0.00113456
0.00112846
0.0011219
0.0011149
0.0011819
0.0011818
0.00118156
0.00118118
0.00118065
0.00117995
0.00117907
0.00117801
0.00117674
0.00117524
0.00117351
0.00117152
0.00116925
0.0011667
0.00116383
0.00116064
0.0011571
0.0011532
0.00114893
0.00114427
0.00113922
0.00113377
0.00112791
0.00112165
0.00111499
0.00118131
0.0011812
0.00118095
0.00118054
0.00117997
0.00117923
0.00117831
0.0011772
0.00117588
0.00117434
0.00117257
0.00117055
0.00116826
0.00116569
0.00116283
0.00115966
0.00115617
0.00115234
0.00114817
0.00114365
0.00113876
0.00113352
0.0011279
0.00112193
0.0011156
0.00118097
0.00118086
0.00118059
0.00118016
0.00117957
0.00117879
0.00117784
0.00117669
0.00117533
0.00117376
0.00117196
0.00116992
0.00116762
0.00116506
0.00116222
0.00115909
0.00115566
0.00115192
0.00114786
0.00114348
0.00113877
0.00113373
0.00112837
0.00112268
0.00111667
0.00118088
0.00118075
0.00118048
0.00118003
0.00117941
0.00117862
0.00117763
0.00117646
0.00117508
0.00117348
0.00117167
0.00116962
0.00116733
0.00116479
0.00116198
0.0011589
0.00115555
0.0011519
0.00114797
0.00114373
0.0011392
0.00113437
0.00112925
0.00112384
0.00111816
0.00118101
0.00118088
0.00118059
0.00118014
0.0011795
0.00117869
0.00117768
0.00117649
0.00117509
0.00117348
0.00117166
0.00116962
0.00116735
0.00116483
0.00116207
0.00115906
0.00115578
0.00115224
0.00114844
0.00114436
0.00114001
0.00113539
0.00113051
0.00112537
0.00111999
0.00118135
0.00118122
0.00118093
0.00118046
0.00117981
0.00117899
0.00117797
0.00117676
0.00117535
0.00117375
0.00117193
0.0011699
0.00116765
0.00116518
0.00116247
0.00115953
0.00115634
0.00115291
0.00114924
0.00114531
0.00114115
0.00113674
0.00113209
0.00112722
0.00112214
0.0011819
0.00118177
0.00118147
0.00118099
0.00118034
0.0011795
0.00117847
0.00117726
0.00117585
0.00117425
0.00117244
0.00117044
0.00116822
0.00116579
0.00116315
0.00116028
0.00115719
0.00115388
0.00115033
0.00114657
0.00114258
0.00113838
0.00113397
0.00112935
0.00112455
0.00118263
0.0011825
0.00118219
0.00118172
0.00118106
0.00118021
0.00117918
0.00117797
0.00117657
0.00117497
0.00117319
0.00117121
0.00116903
0.00116665
0.00116407
0.00116129
0.0011583
0.0011551
0.0011517
0.00114809
0.00114428
0.00114028
0.00113609
0.00113172
0.00112719
0.00118354
0.0011834
0.0011831
0.00118262
0.00118195
0.00118111
0.00118008
0.00117887
0.00117748
0.0011759
0.00117414
0.00117219
0.00117006
0.00116774
0.00116523
0.00116253
0.00115964
0.00115656
0.00115329
0.00114984
0.00114621
0.0011424
0.00113843
0.0011343
0.00113003
0.0011846
0.00118446
0.00118416
0.00118368
0.00118302
0.00118218
0.00118115
0.00117995
0.00117857
0.00117701
0.00117528
0.00117337
0.00117129
0.00116903
0.00116659
0.00116398
0.00116119
0.00115823
0.0011551
0.0011518
0.00114834
0.00114472
0.00114096
0.00113706
0.00113303
0.00118581
0.00118567
0.00118537
0.00118489
0.00118423
0.0011834
0.00118238
0.00118119
0.00117983
0.0011783
0.00117659
0.00117473
0.00117269
0.0011705
0.00116814
0.00116561
0.00116293
0.00116008
0.00115708
0.00115393
0.00115064
0.00114721
0.00114364
0.00113996
0.00113617
0.00118715
0.00118702
0.00118672
0.00118624
0.00118559
0.00118476
0.00118375
0.00118258
0.00118124
0.00117973
0.00117806
0.00117624
0.00117426
0.00117213
0.00116984
0.00116741
0.00116482
0.0011621
0.00115923
0.00115622
0.00115309
0.00114983
0.00114646
0.00114298
0.00113941
0.00118862
0.00118848
0.00118819
0.00118772
0.00118707
0.00118625
0.00118525
0.0011841
0.00118278
0.0011813
0.00117967
0.00117789
0.00117597
0.0011739
0.00117169
0.00116934
0.00116686
0.00116425
0.00116151
0.00115864
0.00115566
0.00115258
0.00114939
0.00114611
0.00114275
0.00119019
0.00119006
0.00118976
0.0011893
0.00118866
0.00118785
0.00118687
0.00118573
0.00118443
0.00118299
0.0011814
0.00117966
0.0011778
0.00117579
0.00117366
0.0011714
0.00116902
0.00116652
0.0011639
0.00116117
0.00115834
0.00115542
0.00115241
0.00114931
0.00114616
0.00119186
0.00119173
0.00119144
0.00119098
0.00119035
0.00118955
0.00118859
0.00118747
0.0011862
0.00118478
0.00118323
0.00118155
0.00117973
0.0011778
0.00117574
0.00117357
0.00117128
0.00116889
0.00116639
0.00116379
0.00116111
0.00115834
0.00115549
0.00115258
0.00114961
0.00119361
0.00119348
0.0011932
0.00119274
0.00119212
0.00119134
0.00119039
0.0011893
0.00118805
0.00118667
0.00118516
0.00118352
0.00118177
0.00117989
0.00117791
0.00117582
0.00117363
0.00117134
0.00116896
0.00116649
0.00116394
0.00116132
0.00115863
0.00115589
0.0011531
0.00119543
0.00119531
0.00119503
0.00119458
0.00119397
0.0011932
0.00119228
0.0011912
0.00118998
0.00118864
0.00118717
0.00118558
0.00118387
0.00118207
0.00118016
0.00117815
0.00117605
0.00117386
0.00117159
0.00116924
0.00116682
0.00116434
0.0011618
0.00115922
0.0011566
0.00119732
0.0011972
0.00119692
0.00119649
0.00119589
0.00119513
0.00119422
0.00119317
0.00119198
0.00119067
0.00118924
0.0011877
0.00118605
0.0011843
0.00118246
0.00118054
0.00117853
0.00117643
0.00117427
0.00117204
0.00116974
0.00116739
0.001165
0.00116257
0.00116011
0.00119926
0.00119914
0.00119887
0.00119844
0.00119786
0.00119711
0.00119622
0.0011952
0.00119404
0.00119276
0.00119137
0.00118987
0.00118828
0.00118659
0.00118482
0.00118297
0.00118104
0.00117905
0.00117698
0.00117486
0.00117269
0.00117046
0.0011682
0.00116592
0.0011636
0.00120124
0.00120112
0.00120086
0.00120044
0.00119987
0.00119914
0.00119827
0.00119726
0.00119613
0.00119489
0.00119353
0.00119208
0.00119054
0.00118892
0.00118722
0.00118544
0.00118359
0.00118168
0.00117972
0.0011777
0.00117564
0.00117354
0.00117141
0.00116925
0.00116708
0.00120326
0.00120314
0.00120289
0.00120248
0.00120191
0.0012012
0.00120035
0.00119937
0.00119826
0.00119705
0.00119574
0.00119433
0.00119284
0.00119127
0.00118963
0.00118793
0.00118616
0.00118434
0.00118246
0.00118055
0.00117859
0.0011766
0.00117459
0.00117256
0.00117052
0.00120529
0.00120518
0.00120493
0.00120453
0.00120398
0.00120328
0.00120245
0.00120149
0.00120042
0.00119924
0.00119796
0.0011966
0.00119516
0.00119364
0.00119207
0.00119043
0.00118874
0.001187
0.00118521
0.00118339
0.00118153
0.00117965
0.00117775
0.00117584
0.00117393
0.00120735
0.00120724
0.001207
0.0012066
0.00120606
0.00120538
0.00120457
0.00120363
0.00120258
0.00120143
0.00120019
0.00119887
0.00119748
0.00119602
0.0011945
0.00119293
0.00119131
0.00118965
0.00118795
0.00118621
0.00118445
0.00118267
0.00118088
0.00117908
0.00117728
0.00120941
0.0012093
0.00120906
0.00120868
0.00120815
0.00120749
0.00120669
0.00120578
0.00120476
0.00120364
0.00120243
0.00120115
0.00119981
0.0011984
0.00119694
0.00119543
0.00119387
0.00119228
0.00119066
0.00118901
0.00118734
0.00118566
0.00118397
0.00118227
0.00118058
0.00121146
0.00121136
0.00121113
0.00121076
0.00121024
0.00120959
0.00120881
0.00120792
0.00120693
0.00120584
0.00120467
0.00120343
0.00120212
0.00120076
0.00119936
0.0011979
0.00119642
0.0011949
0.00119335
0.00119178
0.00119019
0.0011886
0.001187
0.00118541
0.00118382
0.00121351
0.00121342
0.00121319
0.00121283
0.00121232
0.00121169
0.00121093
0.00121006
0.00120909
0.00120803
0.00120689
0.00120568
0.00120442
0.00120311
0.00120175
0.00120036
0.00119893
0.00119748
0.001196
0.00119451
0.001193
0.00119149
0.00118998
0.00118848
0.00118699
0.00121555
0.00121545
0.00121524
0.00121488
0.00121439
0.00121377
0.00121302
0.00121217
0.00121123
0.00121019
0.00120909
0.00120792
0.0012067
0.00120543
0.00120412
0.00120278
0.00120141
0.00120002
0.00119861
0.00119719
0.00119576
0.00119433
0.0011929
0.00119148
0.00119008
0.00121756
0.00121747
0.00121726
0.00121691
0.00121643
0.00121582
0.0012151
0.00121427
0.00121334
0.00121234
0.00121126
0.00121013
0.00120895
0.00120772
0.00120646
0.00120517
0.00120385
0.00120252
0.00120117
0.00119981
0.00119845
0.0011971
0.00119575
0.00119441
0.00119309
0.00121954
0.00121946
0.00121926
0.00121892
0.00121845
0.00121785
0.00121714
0.00121633
0.00121543
0.00121445
0.0012134
0.0012123
0.00121115
0.00120997
0.00120875
0.00120751
0.00120624
0.00120496
0.00120367
0.00120238
0.00120109
0.0011998
0.00119852
0.00119726
0.00119601
0.00122149
0.00122141
0.00122122
0.00122089
0.00122043
0.00121985
0.00121916
0.00121836
0.00121748
0.00121653
0.00121551
0.00121443
0.00121332
0.00121217
0.00121099
0.00120979
0.00120858
0.00120735
0.00120612
0.00120488
0.00120365
0.00120242
0.00120121
0.00120002
0.00119885
0.0012234
0.00122333
0.00122314
0.00122282
0.00122237
0.00122181
0.00122113
0.00122035
0.00121949
0.00121856
0.00121756
0.00121652
0.00121544
0.00121432
0.00121318
0.00121203
0.00121086
0.00120968
0.00120849
0.00120731
0.00120614
0.00120497
0.00120382
0.0012027
0.00120159
0.00122527
0.0012252
0.00122502
0.00122471
0.00122427
0.00122372
0.00122305
0.0012223
0.00122145
0.00122054
0.00121957
0.00121856
0.0012175
0.00121642
0.00121532
0.0012142
0.00121307
0.00121194
0.0012108
0.00120967
0.00120855
0.00120744
0.00120635
0.00120528
0.00120424
0.00122709
0.00122702
0.00122685
0.00122655
0.00122612
0.00122558
0.00122493
0.00122419
0.00122337
0.00122247
0.00122153
0.00122053
0.00121951
0.00121846
0.00121739
0.0012163
0.00121521
0.00121412
0.00121303
0.00121195
0.00121087
0.00120982
0.00120878
0.00120777
0.00120679
0.00122885
0.0012288
0.00122863
0.00122834
0.00122792
0.00122739
0.00122676
0.00122603
0.00122522
0.00122435
0.00122342
0.00122245
0.00122145
0.00122043
0.00121939
0.00121834
0.00121729
0.00121623
0.00121518
0.00121414
0.00121311
0.00121211
0.00121112
0.00121016
0.00120923
0.00123056
0.00123051
0.00123036
0.00123008
0.00122967
0.00122915
0.00122853
0.00122781
0.00122702
0.00122616
0.00122526
0.00122431
0.00122333
0.00122233
0.00122132
0.0012203
0.00121928
0.00121826
0.00121725
0.00121625
0.00121526
0.0012143
0.00121336
0.00121245
0.00121157
0.00123221
0.00123217
0.00123202
0.00123175
0.00123136
0.00123085
0.00123024
0.00122954
0.00122876
0.00122792
0.00122702
0.0012261
0.00122514
0.00122416
0.00122318
0.00122219
0.00122119
0.00122021
0.00121923
0.00121827
0.00121732
0.0012164
0.0012155
0.00121463
0.0012138
0.00123379
0.00123376
0.00123363
0.00123337
0.00123299
0.00123249
0.00123189
0.0012312
0.00123043
0.0012296
0.00122872
0.00122781
0.00122687
0.00122592
0.00122496
0.00122399
0.00122302
0.00122207
0.00122112
0.00122019
0.00121928
0.00121839
0.00121754
0.00121671
0.00121591
0.00123531
0.00123529
0.00123517
0.00123493
0.00123455
0.00123406
0.00123347
0.00123279
0.00123203
0.00123122
0.00123035
0.00122945
0.00122853
0.0012276
0.00122665
0.00122571
0.00122477
0.00122384
0.00122292
0.00122202
0.00122114
0.00122029
0.00121946
0.00121867
0.00121792
0.00123676
0.00123676
0.00123666
0.00123642
0.00123606
0.00123558
0.00123499
0.00123432
0.00123357
0.00123276
0.00123191
0.00123102
0.00123011
0.00122919
0.00122826
0.00122734
0.00122642
0.00122551
0.00122462
0.00122375
0.0012229
0.00122208
0.00122128
0.00122053
0.00121981
0.00123815
0.00123816
0.00123808
0.00123785
0.0012375
0.00123703
0.00123645
0.00123578
0.00123504
0.00123423
0.00123339
0.00123251
0.00123161
0.0012307
0.00122979
0.00122888
0.00122798
0.00122709
0.00122622
0.00122537
0.00122455
0.00122375
0.00122299
0.00122227
0.00122158
0.00123946
0.0012395
0.00123943
0.00123922
0.00123888
0.00123841
0.00123784
0.00123717
0.00123643
0.00123563
0.00123479
0.00123391
0.00123302
0.00123212
0.00123122
0.00123032
0.00122944
0.00122857
0.00122772
0.00122689
0.00122609
0.00122532
0.00122459
0.00122389
0.00122323
0.00124072
0.00124078
0.00124073
0.00124054
0.0012402
0.00123974
0.00123917
0.0012385
0.00123775
0.00123695
0.00123611
0.00123523
0.00123434
0.00123345
0.00123256
0.00123167
0.0012308
0.00122994
0.00122911
0.0012283
0.00122753
0.00122678
0.00122607
0.0012254
0.00122476
0.00124191
0.001242
0.00124198
0.0012418
0.00124147
0.00124101
0.00124043
0.00123975
0.001239
0.00123819
0.00123734
0.00123647
0.00123558
0.00123468
0.0012338
0.00123292
0.00123206
0.00123121
0.0012304
0.00122961
0.00122885
0.00122812
0.00122743
0.00122678
0.00122617
0.00124305
0.00124318
0.00124319
0.00124302
0.00124269
0.00124222
0.00124162
0.00124093
0.00124017
0.00123935
0.00123849
0.00123761
0.00123672
0.00123582
0.00123494
0.00123406
0.00123321
0.00123238
0.00123157
0.0012308
0.00123005
0.00122935
0.00122867
0.00122804
0.00122746
0.00124414
0.00124432
0.00124436
0.0012442
0.00124386
0.00124337
0.00124276
0.00124205
0.00124126
0.00124042
0.00123955
0.00123866
0.00123776
0.00123686
0.00123597
0.0012351
0.00123426
0.00123343
0.00123264
0.00123187
0.00123114
0.00123045
0.0012298
0.00122918
0.00122862
0.00124521
0.00124545
0.00124553
0.00124536
0.001245
0.00124448
0.00124384
0.00124309
0.00124227
0.00124141
0.00124051
0.0012396
0.00123869
0.00123779
0.0012369
0.00123603
0.00123519
0.00123437
0.00123359
0.00123283
0.00123211
0.00123144
0.0012308
0.0012302
0.00122965
0.0012463
0.00124659
0.00124671
0.00124653
0.00124612
0.00124555
0.00124485
0.00124406
0.0012432
0.0012423
0.00124138
0.00124045
0.00123952
0.00123861
0.00123772
0.00123685
0.00123601
0.0012352
0.00123442
0.00123367
0.00123297
0.0012323
0.00123167
0.00123109
0.00123055
0.00124745
0.00124781
0.00124794
0.00124771
0.00124723
0.00124657
0.0012458
0.00124494
0.00124403
0.00124309
0.00124213
0.00124118
0.00124024
0.00123932
0.00123842
0.00123755
0.00123671
0.00123591
0.00123513
0.0012344
0.0012337
0.00123304
0.00123243
0.00123185
0.00123133
0.00124879
0.00124919
0.00124929
0.00124894
0.00124833
0.00124755
0.00124667
0.00124573
0.00124475
0.00124376
0.00124278
0.0012418
0.00124084
0.00123991
0.00123901
0.00123814
0.0012373
0.00123649
0.00123573
0.001235
0.00123431
0.00123366
0.00123305
0.00123249
0.00123198
0.00125051
0.00125086
0.00125081
0.00125025
0.00124942
0.00124846
0.00124745
0.0012464
0.00124535
0.00124431
0.00124329
0.00124229
0.00124132
0.00124038
0.00123947
0.0012386
0.00123776
0.00123696
0.0012362
0.00123548
0.0012348
0.00123416
0.00123356
0.00123301
0.0012325
0.00125298
0.00125301
0.00125259
0.00125163
0.00125047
0.00124927
0.00124809
0.00124693
0.00124581
0.00124472
0.00124366
0.00124265
0.00124167
0.00124072
0.00123981
0.00123894
0.00123811
0.00123731
0.00123656
0.00123584
0.00123516
0.00123453
0.00123394
0.00123339
0.00123289
0.00125712
0.00125606
0.00125468
0.00125302
0.0012514
0.00124991
0.00124854
0.00124727
0.00124608
0.00124496
0.00124388
0.00124286
0.00124187
0.00124093
0.00124002
0.00123916
0.00123833
0.00123754
0.00123679
0.00123608
0.00123541
0.00123478
0.0012342
0.00123366
0.00123316
0.00126614
0.00126097
0.00125701
0.00125421
0.00125203
0.00125023
0.00124871
0.00124736
0.00124614
0.00124501
0.00124393
0.00124291
0.00124193
0.001241
0.0012401
0.00123925
0.00123843
0.00123765
0.0012369
0.0012362
0.00123553
0.00123491
0.00123433
0.0012338
0.00123331
0.00128361
0.00126753
0.00125911
0.00125497
0.00125226
0.00125023
0.00124862
0.00124726
0.00124604
0.00124492
0.00124387
0.00124286
0.0012419
0.00124098
0.0012401
0.00123925
0.00123844
0.00123766
0.00123693
0.00123623
0.00123557
0.00123495
0.00123438
0.00123384
0.00123336
-0.16456
-0.161846
-0.15688
-0.149353
-0.139726
-0.128607
-0.116478
-0.103785
-0.0909781
-0.0785294
-0.0668317
-0.0561746
-0.0468009
-0.0388207
-0.0321596
-0.0267015
-0.0223097
-0.0188281
-0.0161041
-0.014002
-0.0124071
-0.011228
-0.0104019
-0.009859
-0.00957712
-0.147221
-0.141735
-0.132159
-0.119235
-0.105115
-0.0911092
-0.0779494
-0.0659704
-0.0553996
-0.0462817
-0.0385244
-0.0320287
-0.0266791
-0.0223106
-0.0187722
-0.0159519
-0.0137546
-0.0120703
-0.0108081
-0.00985954
-0.00915173
-0.00863501
-0.00827923
-0.00805305
-0.00793394
-0.113689
-0.107401
-0.0974083
-0.0850891
-0.0724183
-0.0603964
-0.0496258
-0.0403007
-0.0325199
-0.0262476
-0.0213292
-0.0175483
-0.0146692
-0.0124672
-0.0107815
-0.00950834
-0.00856322
-0.00786418
-0.00735597
-0.00699175
-0.00673349
-0.00655503
-0.00644152
-0.00637814
-0.00634068
-0.0877932
-0.0800792
-0.0693692
-0.0575003
-0.0463839
-0.0367224
-0.0287601
-0.022402
-0.017491
-0.0138561
-0.0112316
-0.00938175
-0.00809353
-0.00719355
-0.00655645
-0.00610053
-0.00577242
-0.00553788
-0.00536358
-0.00523897
-0.00515376
-0.00509962
-0.00507255
-0.00506782
-0.00506118
-0.0622442
-0.0549179
-0.0453501
-0.0357095
-0.0273185
-0.0204628
-0.0151996
-0.0114186
-0.00876633
-0.00696351
-0.00581618
-0.00511869
-0.00470736
-0.00446944
-0.00432853
-0.00423737
-0.00417176
-0.0041211
-0.00408425
-0.00405568
-0.00403703
-0.00402972
-0.0040354
-0.00405319
-0.00406169
-0.0432776
-0.0368434
-0.0287499
-0.0212154
-0.015193
-0.0105814
-0.00723349
-0.00506312
-0.0037433
-0.00299909
-0.00264725
-0.00254338
-0.00258195
-0.00268557
-0.00280514
-0.00291599
-0.00300619
-0.00307329
-0.00312062
-0.00315335
-0.00317783
-0.00319988
-0.00322469
-0.00325448
-0.00327318
-0.0287546
-0.0237502
-0.0174672
-0.011794
-0.00752954
-0.00448993
-0.00248496
-0.00133723
-0.000828178
-0.000688799
-0.000765987
-0.000966082
-0.00122382
-0.00149126
-0.0017382
-0.00195097
-0.00212448
-0.00226038
-0.00236369
-0.00244097
-0.00249885
-0.002544
-0.0025824
-0.0026187
-0.00264303
-0.0177491
-0.0141599
-0.00960086
-0.00553758
-0.00265806
-0.000837584
0.000189736
0.000652029
0.000705455
0.000523545
0.000236207