/*--------------------------------*- C++ -*----------------------------------*\
  =========                 |
  \\      /  F ield         | OpenFOAM: The Open Source CFD Toolbox
   \\    /   O peration     | Website:  https://openfoam.org
    \\  /    A nd           | Version:  13
     \\/     M anipulation  |
\*---------------------------------------------------------------------------*/
FoamFile
{
    format      ascii;
    class       volScalarField;
    location    "3";
    object      p;
}
// * * * * * * * * * * * * * * * * * * * * * * * * * * * * * * * * * * * * * //

dimensions      [0 2 -2 0 0 0 0];

internalField   nonuniform List<scalar> 
6440
(
115.328
115.328
115.329
115.329
115.329
115.33
115.331
115.331
115.332
115.333
115.333
115.334
115.334
115.335
115.335
115.334
115.334
115.333
115.331
115.329
115.327
115.325
115.323
115.321
115.319
115.327
115.328
115.328
115.328
115.328
115.329
115.33
115.33
115.331
115.331
115.332
115.332
115.332
115.332
115.332
115.332
115.331
115.33
115.328
115.327
115.324
115.322
115.32
115.317
115.315
115.326
115.326
115.326
115.327
115.327
115.328
115.328
115.329
115.329
115.33
115.33
115.33
115.33
115.33
115.33
115.329
115.328
115.327
115.325
115.323
115.321
115.318
115.315
115.312
115.309
115.324
115.325
115.325
115.325
115.326
115.326
115.327
115.327
115.328
115.328
115.328
115.328
115.328
115.327
115.327
115.326
115.325
115.323
115.321
115.319
115.316
115.313
115.31
115.306
115.303
115.322
115.323
115.323
115.323
115.324
115.324
115.325
115.325
115.326
115.326
115.326
115.326
115.325
115.325
115.324
115.323
115.321
115.32
115.318
115.315
115.312
115.309
115.304
115.3
115.297
115.32
115.321
115.321
115.322
115.322
115.322
115.323
115.323
115.324
115.323
115.323
115.323
115.322
115.321
115.32
115.319
115.318
115.316
115.313
115.311
115.307
115.304
115.299
115.294
115.29
115.318
115.318
115.319
115.319
115.32
115.32
115.321
115.321
115.321
115.321
115.32
115.32
115.319
115.318
115.317
115.315
115.314
115.311
115.309
115.306
115.302
115.298
115.293
115.288
115.283
115.316
115.316
115.317
115.317
115.317
115.318
115.318
115.318
115.318
115.318
115.317
115.317
115.316
115.315
115.313
115.311
115.309
115.307
115.304
115.3
115.296
115.292
115.286
115.28
115.275
115.313
115.313
115.314
115.314
115.314
115.315
115.315
115.315
115.315
115.314
115.314
115.313
115.312
115.311
115.309
115.307
115.304
115.301
115.298
115.294
115.289
115.284
115.278
115.271
115.265
115.31
115.31
115.311
115.311
115.311
115.311
115.311
115.311
115.31
115.31
115.309
115.308
115.307
115.306
115.304
115.302
115.299
115.295
115.291
115.286
115.281
115.275
115.268
115.26
115.253
115.306
115.306
115.307
115.307
115.306
115.306
115.306
115.305
115.305
115.304
115.303
115.302
115.301
115.3
115.298
115.296
115.293
115.288
115.283
115.278
115.272
115.265
115.257
115.247
115.239
115.301
115.302
115.302
115.301
115.3
115.299
115.298
115.298
115.297
115.296
115.296
115.295
115.294
115.293
115.291
115.288
115.285
115.28
115.274
115.268
115.261
115.253
115.243
115.232
115.221
115.295
115.295
115.295
115.293
115.291
115.29
115.289
115.288
115.287
115.286
115.286
115.285
115.285
115.284
115.282
115.279
115.275
115.269
115.263
115.256
115.248
115.238
115.226
115.212
115.198
115.287
115.286
115.285
115.283
115.279
115.277
115.276
115.274
115.273
115.273
115.273
115.273
115.273
115.272
115.27
115.266
115.262
115.257
115.25
115.243
115.233
115.221
115.205
115.187
115.168
115.275
115.274
115.272
115.267
115.262
115.259
115.257
115.256
115.255
115.256
115.256
115.257
115.258
115.257
115.255
115.251
115.247
115.241
115.234
115.226
115.215
115.199
115.178
115.153
115.126
115.259
115.257
115.252
115.245
115.238
115.234
115.232
115.231
115.232
115.233
115.235
115.237
115.238
115.238
115.236
115.232
115.228
115.222
115.214
115.205
115.191
115.172
115.144
115.109
115.07
115.234
115.23
115.223
115.212
115.203
115.198
115.197
115.2
115.202
115.207
115.21
115.213
115.214
115.214
115.212
115.209
115.204
115.198
115.189
115.178
115.161
115.136
115.098
115.049
114.988
115.198
115.192
115.181
115.165
115.155
115.151
115.155
115.161
115.168
115.175
115.181
115.185
115.187
115.187
115.186
115.182
115.176
115.168
115.157
115.142
115.119
115.086
115.037
114.971
114.871
115.148
115.138
115.125
115.107
115.093
115.093
115.103
115.116
115.128
115.139
115.148
115.154
115.157
115.158
115.156
115.152
115.144
115.133
115.117
115.095
115.062
115.013
114.939
114.841
114.664
115.083
115.07
115.055
115.033
115.019
115.023
115.041
115.062
115.081
115.097
115.109
115.118
115.123
115.125
115.123
115.117
115.107
115.091
115.069
115.036
114.987
114.916
114.805
114.669
114.285
115.006
114.991
114.976
114.956
114.941
114.947
114.972
114.999
115.024
115.045
115.061
115.072
115.08
115.082
115.08
115.072
115.058
115.036
115.004
114.958
114.887
114.778
114.589
114.284
113.485
114.919
114.903
114.89
114.872
114.858
114.865
114.893
114.926
114.957
114.983
115.004
115.018
115.028
115.032
115.03
115.021
115.004
114.978
114.938
114.88
114.793
114.661
114.448
114.106
113.56
114.824
114.811
114.802
114.789
114.777
114.785
114.816
114.851
114.886
114.915
114.938
114.956
114.968
114.973
114.97
114.96
114.94
114.908
114.86
114.791
114.692
114.548
114.343
114.04
113.656
114.721
114.716
114.714
114.708
114.699
114.707
114.739
114.776
114.811
114.842
114.867
114.887
114.9
114.906
114.903
114.89
114.867
114.83
114.775
114.697
114.589
114.44
114.236
113.962
113.609
114.611
114.614
114.622
114.629
114.625
114.634
114.664
114.699
114.733
114.764
114.79
114.811
114.825
114.831
114.828
114.813
114.786
114.744
114.684
114.599
114.485
114.333
114.135
113.878
113.565
114.491
114.502
114.523
114.542
114.55
114.561
114.586
114.618
114.65
114.679
114.706
114.728
114.743
114.749
114.745
114.729
114.7
114.654
114.588
114.499
114.381
114.229
114.035
113.799
113.514
114.358
114.376
114.405
114.437
114.458
114.474
114.495
114.526
114.556
114.585
114.613
114.637
114.653
114.66
114.656
114.639
114.607
114.558
114.489
114.397
114.277
114.125
113.939
113.712
113.451
114.21
114.229
114.26
114.302
114.342
114.361
114.379
114.411
114.443
114.476
114.509
114.536
114.555
114.564
114.56
114.543
114.51
114.459
114.387
114.293
114.172
114.022
113.839
113.627
113.377
114.044
114.055
114.079
114.128
114.18
114.202
114.221
114.261
114.305
114.348
114.389
114.424
114.448
114.46
114.459
114.442
114.408
114.356
114.284
114.188
114.067
113.919
113.743
113.534
113.3
113.862
113.855
113.862
113.903
113.953
113.971
114.002
114.065
114.132
114.196
114.253
114.299
114.332
114.35
114.351
114.336
114.304
114.252
114.179
114.083
113.963
113.818
113.643
113.445
113.215
113.663
113.634
113.611
113.622
113.637
113.65
113.705
113.814
113.922
114.018
114.099
114.163
114.207
114.233
114.24
114.228
114.197
114.146
114.074
113.979
113.86
113.716
113.548
113.349
113.129
113.456
113.4
113.337
113.283
113.242
113.236
113.326
113.507
113.676
113.818
113.933
114.018
114.078
114.114
114.127
114.119
114.091
114.041
113.97
113.876
113.759
113.617
113.449
113.26
113.039
113.255
113.172
113.057
112.922
112.794
112.762
112.887
113.161
113.409
113.609
113.761
113.873
113.948
113.995
114.015
114.012
113.987
113.939
113.869
113.776
113.66
113.52
113.358
113.165
112.954
113.088
112.983
112.817
112.589
112.376
112.306
112.451
112.815
113.149
113.407
113.6
113.733
113.826
113.882
113.909
113.91
113.887
113.841
113.773
113.681
113.566
113.428
113.264
113.081
112.866
112.98
112.867
112.667
112.378
112.078
111.989
112.124
112.531
112.933
113.241
113.46
113.616
113.718
113.781
113.813
113.817
113.796
113.751
113.683
113.592
113.478
113.341
113.182
112.993
112.786
112.965
112.863
112.662
112.347
112.003
111.88
111.972
112.369
112.801
113.132
113.367
113.525
113.633
113.699
113.731
113.736
113.714
113.669
113.601
113.511
113.397
113.261
113.1
112.92
112.708
113.052
112.98
112.81
112.554
112.182
112.001
112.035
112.374
112.784
113.102
113.322
113.476
113.576
113.637
113.667
113.669
113.646
113.599
113.53
113.439
113.325
113.189
113.032
112.845
112.64
113.236
113.192
113.076
112.887
112.574
112.337
112.312
112.555
112.888
113.152
113.339
113.464
113.55
113.601
113.622
113.618
113.591
113.541
113.47
113.377
113.263
113.127
112.966
112.788
112.577
113.474
113.452
113.382
113.26
113.026
112.809
112.738
112.868
113.091
113.272
113.399
113.494
113.553
113.587
113.597
113.585
113.551
113.496
113.422
113.326
113.21
113.073
112.917
112.73
112.528
113.722
113.713
113.69
113.624
113.499
113.35
113.246
113.249
113.341
113.429
113.499
113.547
113.581
113.595
113.59
113.567
113.525
113.465
113.386
113.287
113.169
113.032
112.87
112.693
112.484
113.931
113.936
113.964
113.987
113.96
113.896
113.753
113.628
113.596
113.601
113.609
113.622
113.625
113.618
113.598
113.563
113.513
113.446
113.362
113.26
113.139
112.999
112.842
112.656
112.456
114.073
114.099
114.191
114.307
114.381
114.363
114.16
113.951
113.831
113.763
113.726
113.699
113.678
113.652
113.617
113.571
113.512
113.438
113.349
113.243
113.12
112.98
112.817
112.641
112.434
114.143
114.191
114.34
114.548
114.691
114.662
114.415
114.169
114.004
113.895
113.823
113.777
113.734
113.692
113.644
113.588
113.521
113.44
113.346
113.237
113.112
112.969
112.811
112.626
112.429
114.17
114.219
114.386
114.636
114.812
114.742
114.505
114.279
114.109
113.989
113.908
113.842
113.788
113.734
113.677
113.612
113.538
113.452
113.353
113.241
113.113
112.971
112.807
112.633
112.429
114.184
114.205
114.326
114.561
114.719
114.654
114.477
114.303
114.161
114.053
113.968
113.902
113.839
113.778
113.714
113.642
113.562
113.471
113.369
113.254
113.124
112.98
112.822
112.639
112.446
114.203
114.178
114.206
114.363
114.468
114.468
114.383
114.277
114.177
114.09
114.019
113.95
113.887
113.822
113.753
113.677
113.592
113.498
113.392
113.274
113.144
113
112.837
112.667
112.468
114.213
114.137
114.074
114.138
114.209
114.28
114.279
114.238
114.18
114.119
114.056
113.998
113.934
113.867
113.795
113.716
113.628
113.53
113.422
113.303
113.171
113.026
112.871
112.692
112.505
114.227
114.105
113.972
113.966
114.03
114.144
114.202
114.209
114.185
114.144
114.098
114.041
113.981
113.915
113.841
113.759
113.668
113.569
113.459
113.338
113.206
113.063
112.903
112.737
112.545
114.258
114.112
113.941
113.881
113.943
114.08
114.172
114.207
114.205
114.181
114.139
114.092
114.032
113.965
113.89
113.806
113.714
113.612
113.501
113.379
113.248
113.104
112.952
112.778
112.599
114.346
114.201
114.012
113.908
113.961
114.095
114.195
114.241
114.248
114.229
114.196
114.145
114.088
114.02
113.943
113.858
113.763
113.66
113.548
113.427
113.295
113.154
112.999
112.838
112.655
114.498
114.376
114.193
114.077
114.092
114.199
114.28
114.316
114.318
114.298
114.259
114.212
114.15
114.08
114.001
113.914
113.818
113.713
113.601
113.479
113.349
113.208
113.061
112.894
112.723
114.714
114.614
114.459
114.357
114.335
114.379
114.416
114.427
114.413
114.382
114.341
114.283
114.22
114.147
114.065
113.975
113.877
113.772
113.658
113.537
113.408
113.27
113.12
112.967
112.792
114.953
114.893
114.774
114.706
114.635
114.607
114.59
114.564
114.528
114.483
114.427
114.368
114.297
114.219
114.134
114.041
113.941
113.835
113.721
113.601
113.473
113.337
113.195
113.035
112.874
115.194
115.176
115.111
115.062
114.947
114.845
114.776
114.714
114.653
114.591
114.528
114.455
114.38
114.297
114.208
114.113
114.011
113.904
113.79
113.671
113.544
113.411
113.267
113.122
112.957
115.397
115.433
115.431
115.384
115.212
115.063
114.954
114.863
114.782
114.706
114.628
114.552
114.469
114.381
114.289
114.191
114.088
113.98
113.866
113.747
113.623
113.492
113.356
113.205
113.054
115.54
115.626
115.69
115.616
115.412
115.241
115.11
115.001
114.905
114.818
114.736
114.648
114.562
114.471
114.376
114.276
114.172
114.063
113.95
113.832
113.71
113.583
113.446
113.309
113.154
115.621
115.726
115.825
115.74
115.535
115.37
115.237
115.122
115.02
114.928
114.837
114.751
114.659
114.566
114.469
114.368
114.263
114.155
114.043
113.927
113.807
113.681
113.554
113.411
113.27
115.669
115.761
115.838
115.758
115.604
115.465
115.34
115.227
115.126
115.031
114.943
114.85
114.76
114.666
114.569
114.468
114.364
114.256
114.146
114.032
113.914
113.793
113.664
113.536
113.391
115.72
115.775
115.806
115.75
115.648
115.538
115.425
115.319
115.222
115.13
115.039
114.954
114.863
114.77
114.675
114.575
114.473
114.367
114.258
114.147
114.032
113.914
113.794
113.66
113.529
115.774
115.805
115.81
115.759
115.695
115.601
115.499
115.402
115.309
115.221
115.139
115.051
114.967
114.877
114.785
114.688
114.589
114.486
114.38
114.272
114.161
114.046
113.925
113.806
113.671
115.844
115.858
115.854
115.804
115.744
115.659
115.567
115.476
115.389
115.308
115.227
115.15
115.068
114.985
114.897
114.805
114.709
114.61
114.508
114.403
114.295
114.184
114.072
113.946
113.825
115.95
115.945
115.922
115.864
115.801
115.715
115.626
115.54
115.459
115.383
115.313
115.238
115.166
115.088
115.006
114.92
114.829
114.734
114.637
114.536
114.432
114.325
114.21
114.1
113.975
116.074
116.058
116.004
115.937
115.854
115.765
115.677
115.593
115.518
115.449
115.382
115.32
115.252
115.182
115.107
115.027
114.942
114.852
114.759
114.662
114.562
114.457
114.352
114.235
114.123
116.196
116.181
116.09
116.001
115.903
115.805
115.714
115.632
115.561
115.497
115.441
115.381
115.324
115.261
115.193
115.119
115.039
114.955
114.866
114.773
114.677
114.576
114.469
114.365
114.249
116.288
116.279
116.154
116.05
115.934
115.827
115.734
115.654
115.586
115.528
115.474
115.426
115.373
115.317
115.255
115.187
115.113
115.033
114.949
114.859
114.765
114.667
114.567
114.457
114.352
116.34
116.334
116.187
116.065
115.944
115.831
115.736
115.657
115.591
115.536
115.49
115.443
115.396
115.345
115.288
115.225
115.155
115.079
114.998
114.911
114.819
114.724
114.621
114.522
114.414
116.354
116.349
116.188
116.059
115.93
115.816
115.72
115.642
115.578
115.526
115.478
115.436
115.391
115.342
115.288
115.227
115.159
115.086
115.007
114.922
114.832
114.736
114.64
114.536
114.436
116.344
116.335
116.17
116.034
115.904
115.788
115.692
115.615
115.551
115.497
115.45
115.403
115.358
115.309
115.254
115.193
115.126
115.054
114.975
114.891
114.801
114.707
114.608
114.511
114.412
116.328
116.309
116.142
116.004
115.872
115.757
115.661
115.583
115.517
115.46
115.406
115.356
115.305
115.251
115.193
115.13
115.061
114.987
114.907
114.822
114.732
114.638
114.543
114.445
114.35
116.32
116.283
116.119
115.977
115.848
115.733
115.638
115.558
115.488
115.424
115.364
115.304
115.244
115.183
115.117
115.048
114.975
114.897
114.815
114.729
114.638
114.545
114.45
114.356
114.264
116.314
116.263
116.109
115.971
115.842
115.731
115.637
115.555
115.479
115.407
115.334
115.264
115.192
115.119
115.044
114.967
114.887
114.805
114.719
114.631
114.539
114.446
114.353
114.261
114.174
116.322
116.26
116.122
115.989
115.87
115.764
115.671
115.587
115.504
115.421
115.338
115.252
115.168
115.081
114.994
114.907
114.82
114.731
114.642
114.551
114.459
114.367
114.276
114.189
114.105
116.345
116.281
116.163
116.046
115.936
115.839
115.75
115.663
115.575
115.482
115.385
115.288
115.188
115.088
114.989
114.891
114.795
114.7
114.606
114.513
114.421
114.331
114.245
114.161
114.082
116.395
116.332
116.238
116.138
116.049
115.96
115.877
115.789
115.696
115.595
115.489
115.377
115.265
115.152
115.041
114.934
114.83
114.729
114.632
114.537
114.445
114.358
114.276
114.199
114.122
116.464
116.409
116.342
116.272
116.196
116.124
116.046
115.96
115.864
115.757
115.641
115.524
115.4
115.277
115.157
115.041
114.931
114.826
114.726
114.63
114.54
114.456
114.38
114.305
114.237
116.551
116.507
116.469
116.42
116.373
116.312
116.242
116.16
116.063
115.954
115.837
115.709
115.582
115.453
115.327
115.206
115.092
114.984
114.882
114.787
114.699
114.62
114.546
114.482
114.412
116.64
116.613
116.599
116.579
116.546
116.502
116.441
116.363
116.269
116.162
116.042
115.919
115.788
115.657
115.529
115.407
115.292
115.183
115.082
114.988
114.902
114.826
114.761
114.693
114.633
116.727
116.711
116.715
116.708
116.697
116.663
116.612
116.54
116.452
116.348
116.236
116.112
115.986
115.858
115.733
115.612
115.499
115.392
115.292
115.2
115.118
115.046
114.979
114.923
114.858
116.79
116.782
116.792
116.8
116.793
116.771
116.727
116.663
116.582
116.487
116.378
116.266
116.145
116.023
115.904
115.788
115.678
115.575
115.478
115.39
115.31
115.24
115.18
115.117
115.06
116.822
116.815
116.823
116.826
116.827
116.807
116.77
116.713
116.64
116.553
116.458
116.35
116.24
116.128
116.016
115.908
115.803
115.704
115.612
115.527
115.45
115.383
115.319
115.263
115.201
116.813
116.803
116.8
116.797
116.79
116.772
116.738
116.688
116.623
116.546
116.458
116.365
116.264
116.162
116.06
115.959
115.861
115.768
115.68
115.598
115.524
115.457
115.397
115.334
115.277
116.769
116.751
116.735
116.716
116.702
116.68
116.649
116.604
116.546
116.478
116.402
116.316
116.228
116.136
116.043
115.95
115.859
115.771
115.687
115.609
115.538
115.472
115.408
115.35
115.289
116.695
116.672
116.643
116.613
116.587
116.562
116.53
116.489
116.438
116.378
116.309
116.236
116.156
116.074
115.99
115.904
115.82
115.737
115.658
115.583
115.514
115.448
115.387
115.323
115.265
116.608
116.582
116.547
116.508
116.476
116.445
116.413
116.375
116.329
116.275
116.216
116.149
116.079
116.005
115.928
115.85
115.771
115.693
115.619
115.547
115.48
115.416
115.353
115.294
115.233
116.518
116.494
116.462
116.422
116.385
116.351
116.318
116.282
116.239
116.191
116.137
116.08
116.016
115.95
115.88
115.808
115.736
115.663
115.592
115.525
115.46
115.398
115.337
115.275
115.218
116.435
116.416
116.392
116.356
116.321
116.284
116.251
116.215
116.176
116.132
116.085
116.032
115.976
115.916
115.853
115.787
115.72
115.652
115.586
115.522
115.46
115.4
115.34
115.282
115.224
116.36
116.347
116.332
116.305
116.273
116.237
116.202
116.166
116.129
116.089
116.045
115.999
115.949
115.895
115.838
115.778
115.716
115.653
115.591
115.531
115.472
115.414
115.357
115.298
115.243
116.293
116.285
116.275
116.254
116.226
116.191
116.156
116.121
116.085
116.047
116.008
115.965
115.92
115.872
115.82
115.766
115.709
115.651
115.593
115.536
115.48
115.425
115.369
115.314
115.258
116.232
116.224
116.215
116.196
116.171
116.139
116.104
116.069
116.034
115.998
115.961
115.922
115.881
115.838
115.791
115.741
115.689
115.635
115.582
115.528
115.475
115.422
115.368
115.312
115.259
116.174
116.165
116.153
116.134
116.111
116.08
116.047
116.013
115.979
115.944
115.909
115.873
115.835
115.794
115.752
115.706
115.658
115.608
115.558
115.507
115.457
115.405
115.352
115.299
115.246
116.12
116.109
116.096
116.075
116.053
116.024
115.993
115.96
115.926
115.893
115.859
115.824
115.788
115.751
115.711
115.668
115.623
115.576
115.529
115.481
115.432
115.382
115.33
115.277
115.227
116.071
116.06
116.047
116.025
116.004
115.977
115.948
115.915
115.882
115.85
115.817
115.783
115.749
115.713
115.675
115.634
115.591
115.547
115.502
115.456
115.408
115.359
115.308
115.258
115.209
116.027
116.017
116.007
115.986
115.965
115.939
115.911
115.88
115.847
115.815
115.783
115.75
115.717
115.681
115.644
115.605
115.564
115.522
115.478
115.433
115.387
115.339
115.289
115.24
115.193
115.991
115.982
115.973
115.954
115.934
115.908
115.88
115.85
115.819
115.787
115.756
115.723
115.69
115.655
115.618
115.58
115.54
115.499
115.456
115.413
115.367
115.32
115.272
115.225
115.179
115.964
115.955
115.946
115.927
115.907
115.882
115.854
115.825
115.794
115.764
115.733
115.7
115.666
115.631
115.595
115.558
115.519
115.478
115.437
115.394
115.349
115.303
115.257
115.21
115.166
115.944
115.934
115.925
115.905
115.885
115.86
115.833
115.804
115.775
115.745
115.714
115.681
115.647
115.612
115.576
115.539
115.5
115.461
115.42
115.378
115.334
115.29
115.244
115.2
115.156
115.931
115.919
115.911
115.89
115.869
115.844
115.817
115.788
115.759
115.73
115.699
115.666
115.632
115.597
115.561
115.525
115.487
115.447
115.407
115.366
115.323
115.279
115.236
115.192
115.15
115.929
115.912
115.906
115.883
115.859
115.833
115.806
115.778
115.749
115.719
115.688
115.655
115.621
115.587
115.551
115.515
115.477
115.439
115.399
115.358
115.316
115.273
115.231
115.188
115.146
115.962
115.927
115.91
115.883
115.855
115.828
115.8
115.771
115.742
115.712
115.681
115.649
115.615
115.581
115.546
115.51
115.472
115.434
115.394
115.354
115.312
115.27
115.228
115.186
115.144
116.035
115.956
115.915
115.883
115.854
115.825
115.797
115.769
115.74
115.71
115.678
115.646
115.613
115.579
115.544
115.508
115.471
115.432
115.393
115.352
115.311
115.27
115.228
115.185
115.143
111.357
111.355
111.351
111.345
111.336
111.325
111.312
111.3
111.291
111.288
111.292
111.303
111.318
111.327
111.318
111.288
111.242
111.182
111.124
111.099
111.118
111.164
111.205
111.223
111.225
111.357
111.356
111.352
111.344
111.33
111.312
111.291
111.272
111.258
111.252
111.256
111.269
111.284
111.294
111.289
111.265
111.221
111.165
111.113
111.084
111.091
111.135
111.187
111.217
111.223
111.344
111.346
111.339
111.323
111.298
111.268
111.238
111.211
111.191
111.18
111.178
111.184
111.196
111.207
111.211
111.201
111.174
111.134
111.098
111.087
111.105
111.141
111.18
111.208
111.217
111.307
111.313
111.304
111.28
111.246
111.207
111.168
111.131
111.1
111.077
111.061
111.053
111.052
111.059
111.068
111.075
111.076
111.073
111.077
111.101
111.141
111.179
111.207
111.222
111.224
111.249
111.259
111.249
111.22
111.179
111.132
111.082
111.032
110.986
110.944
110.907
110.877
110.854
110.841
110.841
110.852
110.875
110.911
110.967
111.047
111.14
111.212
111.244
111.247
111.241
111.18
111.194
111.184
111.151
111.105
111.049
110.988
110.923
110.857
110.793
110.731
110.672
110.618
110.571
110.541
110.535
110.561
110.623
110.719
110.856
111.021
111.165
111.241
111.253
111.246
111.118
111.134
111.123
111.088
111.036
110.972
110.898
110.817
110.731
110.642
110.551
110.459
110.365
110.277
110.203
110.157
110.156
110.217
110.339
110.521
110.755
110.993
111.169
111.241
111.241
111.071
111.09
111.079
111.042
110.984
110.911
110.825
110.728
110.62
110.506
110.384
110.255
110.119
109.981
109.856
109.761
109.717
109.746
109.861
110.071
110.364
110.696
111.007
111.199
111.232
111.041
111.063
111.057
111.017
110.952
110.871
110.776
110.665
110.539
110.4
110.248
110.083
109.904
109.715
109.533
109.384
109.288
109.273
109.364
109.575
109.896
110.291
110.706
111.043
111.168
111.029
111.051
111.053
111.017
110.946
110.857
110.753
110.632
110.492
110.335
110.16
109.966
109.749
109.513
109.275
109.069
108.923
108.858
108.906
109.095
109.418
109.839
110.304
110.721
110.951
111.032
111.049
111.059
111.031
110.961
110.87
110.763
110.634
110.485
110.318
110.127
109.912
109.67
109.401
109.117
108.856
108.669
108.574
108.57
108.713
109.008
109.42
109.89
110.335
110.609
111.04
111.052
111.065
111.046
110.988
110.908
110.804
110.671
110.519
110.352
110.162
109.94
109.682
109.391
109.074
108.77
108.549
108.45
108.424
108.517
108.756
109.12
109.564
109.99
110.278
111.041
111.047
111.057
111.05
111.014
110.961
110.871
110.738
110.586
110.43
110.26
110.055
109.807
109.517
109.189
108.852
108.586
108.47
108.459
108.536
108.727
109.026
109.408
109.798
110.077
111.04
111.036
111.029
111.026
111.016
111.004
110.948
110.828
110.681
110.54
110.399
110.232
110.022
109.765
109.472
109.154
108.859
108.683
108.695
108.78
108.935
109.173
109.488
109.823
110.08
111.05
111.043
111.017
111.002
110.999
111.018
111.008
110.924
110.797
110.671
110.556
110.43
110.269
110.068
109.836
109.589
109.344
109.165
109.134
109.206
109.332
109.53
109.79
110.064
110.299
111.071
111.068
111.03
111.001
110.995
111.011
111.042
111.016
110.93
110.823
110.719
110.616
110.497
110.35
110.178
110.005
109.837
109.699
109.631
109.678
109.802
110.005
110.256
110.487
110.703
111.102
111.101
111.047
111.001
110.99
111.016
111.055
111.082
111.061
110.982
110.875
110.771
110.675
110.571
110.446
110.317
110.2
110.108
110.059
110.101
110.26
110.514
110.793
111.022
111.237
111.147
111.143
111.048
110.978
110.967
111.005
111.062
111.12
111.163
111.133
111.023
110.897
110.803
110.731
110.648
110.545
110.448
110.383
110.382
110.48
110.7
111.013
111.329
111.583
111.826
111.22
111.188
111.059
110.953
110.902
110.941
111.041
111.122
111.182
111.199
111.118
110.978
110.873
110.834
110.804
110.744
110.669
110.631
110.677
110.836
111.108
111.452
111.79
112.083
112.375
111.317
111.292
111.213
111.061
110.944
110.915
110.987
111.085
111.151
111.185
111.147
111.044
110.948
110.917
110.935
110.937
110.906
110.898
110.968
111.153
111.438
111.782
112.128
112.451
112.767
111.792
111.616
111.541
111.315
111.095
110.983
110.986
111.038
111.086
111.126
111.124
111.054
110.975
110.963
111.02
111.075
111.091
111.104
111.184
111.362
111.644
111.988
112.339
112.671
112.954
112.579
112.042
111.776
111.508
111.281
111.129
111.044
111.014
111.018
111.051
111.063
111.02
110.954
110.937
110.989
111.068
111.124
111.165
111.249
111.425
111.701
112.054
112.433
112.781
113.014
113.037
112.461
112.067
111.781
111.543
111.317
111.124
111.001
110.948
110.954
110.968
110.947
110.898
110.865
110.879
110.927
110.975
111.02
111.102
111.261
111.531
111.902
112.33
112.744
113.004
113.144
112.664
112.279
111.973
111.697
111.426
111.192
111.015
110.911
110.872
110.859
110.833
110.782
110.722
110.676
110.651
110.639
110.649
110.702
110.843
111.099
111.474
111.932
112.405
112.737
113.192
112.796
112.432
112.103
111.796
111.508
111.253
111.044
110.885
110.778
110.705
110.637
110.552
110.44
110.31
110.182
110.078
110.017
110.025
110.13
110.352
110.694
111.115
111.554
111.879
113.189
112.839
112.488
112.153
111.836
111.542
111.276
111.038
110.828
110.648
110.494
110.347
110.181
109.981
109.745
109.503
109.291
109.14
109.073
109.102
109.237
109.463
109.739
109.993
110.167
113.153
112.832
112.5
112.174
111.858
111.558
111.271
110.994
110.729
110.475
110.231
109.981
109.713
109.407
109.068
108.718
108.394
108.123
107.919
107.785
107.706
107.662
107.592
107.429
107.036
113.101
112.8
112.485
112.165
111.845
111.528
111.212
110.895
110.578
110.257
109.93
109.592
109.231
108.84
108.418
107.975
107.53
107.093
106.664
106.218
105.732
105.17
104.45
103.606
102.433
113.035
112.748
112.443
112.126
111.799
111.465
111.124
110.776
110.417
110.045
109.658
109.249
108.814
108.346
107.842
107.296
106.701
106.042
105.286
104.388
103.25
101.785
99.6864
96.9845
91.8956
112.961
112.683
112.384
112.067
111.735
111.389
111.029
110.654
110.26
109.845
109.401
108.929
108.414
107.854
107.235
106.541
105.746
104.807
103.655
102.18
100.172
97.4527
93.0493
88.0162
71.3136
112.881
112.608
112.313
111.996
111.659
111.302
110.925
110.525
110.097
109.636
109.138
108.589
107.986
107.311
106.547
105.665
104.62
103.347
101.723
99.5868
96.4885
91.9743
83.0882
68.1778
14.929
112.797
112.528
112.235
111.917
111.575
111.208
110.813
110.388
109.926
109.422
108.863
108.245
107.547
106.754
105.84
104.762
103.459
101.837
99.7417
96.9281
92.8722
86.8636
76.5092
59.663
31.0523
112.712
112.446
112.154
111.834
111.487
111.109
110.699
110.25
109.757
109.21
108.6
107.909
107.125
106.221
105.163
103.901
102.359
100.425
97.9217
94.5897
89.9795
83.441
74.0414
60.1769
43.3855
112.629
112.364
112.072
111.75
111.397
111.011
110.586
110.116
109.594
109.009
108.346
107.597
106.729
105.722
104.532
103.102
101.346
99.1422
96.315
92.5951
87.6183
80.8348
71.6012
58.7954
42.4158
112.549
112.285
111.992
111.668
111.311
110.915
110.477
109.989
109.442
108.822
108.12
107.309
106.374
105.276
103.971
102.396
100.458
98.0295
94.9269
90.904
85.6045
78.5556
69.1899
56.7645
41.073
112.473
112.21
111.917
111.591
111.23
110.827
110.378
109.875
109.306
108.66
107.917
107.066
106.071
104.898
103.502
101.808
99.7239
97.1137
93.7974
89.5157
83.9421
76.6312
67.0976
54.792
39.5728
112.405
112.142
111.849
111.522
111.157
110.749
110.292
109.776
109.191
108.523
107.758
106.867
105.83
104.604
103.138
101.358
99.1648
96.4203
92.9326
88.4527
82.627
75.0119
65.1134
52.3368
36.637
112.344
112.082
111.789
111.462
111.095
110.684
110.222
109.698
109.102
108.421
107.633
106.727
105.66
104.401
102.892
101.059
98.7964
95.964
92.3643
87.7247
81.6839
73.7444
63.3551
49.6532
32.705
112.294
112.033
111.74
111.413
111.047
110.635
110.169
109.642
109.041
108.352
107.564
106.641
105.568
104.297
102.773
100.922
98.6344
95.7673
92.0995
87.3666
81.0981
72.8076
61.7139
46.6377
27.7668
112.253
111.994
111.703
111.378
111.013
110.602
110.138
109.611
109.012
108.326
107.534
106.624
105.556
104.294
102.786
100.954
98.6934
95.8555
92.2132
87.4566
80.9841
72.2657
59.5719
42.0603
18.1558
112.224
111.967
111.679
111.356
110.995
110.587
110.128
109.607
109.014
108.337
107.562
106.663
105.62
104.392
102.927
101.157
98.981
96.2611
92.7706
88.2102
81.8767
73.0953
58.6648
38.1158
-0.165315
112.207
111.952
111.668
111.35
110.993
110.592
110.14
109.628
109.048
108.388
107.63
106.767
105.759
104.584
103.189
101.517
99.4809
96.9632
93.7867
89.6762
84.1266
76.4854
63.9626
45.4339
-6.93633
112.202
111.95
111.67
111.358
111.008
110.615
110.174
109.676
109.113
108.474
107.752
106.918
105.966
104.857
103.555
102.009
100.154
97.9002
95.1148
91.6291
87.1425
81.3102
73.2876
63.4062
43.2471
112.208
111.961
111.686
111.38
111.039
110.657
110.229
109.748
109.206
108.596
107.904
107.124
106.229
105.197
104.002
102.599
100.946
98.9782
96.6204
93.7563
90.2602
85.9677
80.6644
74.3389
66.3923
112.226
111.983
111.715
111.417
111.086
110.716
110.303
109.842
109.324
108.745
108.097
107.362
106.535
105.59
104.505
103.254
101.806
100.123
98.1583
95.872
93.2051
90.1481
86.748
83.2772
80.3302
112.254
112.018
111.756
111.467
111.147
110.791
110.396
109.955
109.466
108.921
108.31
107.636
106.873
106.016
105.044
103.942
102.689
101.267
99.66
97.8414
95.8236
93.6323
91.3676
89.2575
87.6887
112.293
112.062
111.808
111.529
111.221
110.88
110.503
110.086
109.624
109.113
108.553
107.926
107.236
106.463
105.601
104.637
103.564
102.374
101.059
99.6298
98.0962
96.5141
94.982
93.676
92.8264
112.341
112.117
111.871
111.602
111.306
110.981
110.624
110.23
109.798
109.324
108.802
108.236
107.61
106.919
106.159
105.321
104.407
103.414
102.348
101.212
100.041
98.8778
97.805
96.9344
96.405
112.397
112.18
111.943
111.684
111.402
111.093
110.755
110.385
109.982
109.543
109.069
108.549
107.987
107.374
106.706
105.983