/*--------------------------------*- C++ -*----------------------------------*\
  =========                 |
  \\      /  F ield         | OpenFOAM: The Open Source CFD Toolbox
   \\    /   O peration     | Website:  https://openfoam.org
    \\  /    A nd           | Version:  13
     \\/     M anipulation  |
\*---------------------------------------------------------------------------*/
FoamFile
{
    format      ascii;
    class       surfaceScalarField;
    location    "3";
    object      phi;
}
// * * * * * * * * * * * * * * * * * * * * * * * * * * * * * * * * * * * * * //

dimensions      [0 3 -1 0 0 0 0];

internalField   nonuniform List<scalar> 
12590
(
-8.10292e-13
8.10294e-13
-2.12829e-12
1.318e-12
-3.07896e-12
9.50672e-13
-3.52125e-12
4.42303e-13
-3.50698e-12
-1.42709e-14
-3.02845e-12
-4.78527e-13
-2.07151e-12
-9.56936e-13
-6.40067e-13
-1.43143e-12
1.23447e-12
-1.87453e-12
3.48394e-12
-2.24946e-12
6.00707e-12
-2.52313e-12
8.68008e-12
-2.673e-12
1.13396e-11
-2.65946e-12
1.38076e-11
-2.46802e-12
1.59028e-11
-2.09522e-12
1.74327e-11
-1.52986e-12
1.83699e-11
-9.37187e-13
1.8697e-11
-3.27134e-13
1.84248e-11
2.7222e-13
1.76754e-11
7.49429e-13
1.64916e-11
1.18389e-12
1.45769e-11
1.91466e-12
1.1861e-11
2.71595e-12
6.52577e-12
5.33524e-12
6.52577e-12
-7.97862e-13
1.60816e-12
-1.83206e-12
2.3522e-12
-2.35722e-12
1.47583e-12
-2.47435e-12
5.59434e-13
-2.2726e-12
-2.1601e-13
-1.7649e-12
-9.86217e-13
-1.06647e-12
-1.65536e-12
-2.30528e-13
-2.26737e-12
6.74432e-13
-2.77948e-12
1.57459e-12
-3.1496e-12
2.37368e-12
-3.3222e-12
2.96077e-12
-3.26008e-12
3.24106e-12
-2.93973e-12
3.1289e-12
-2.35584e-12
2.57237e-12
-1.53867e-12
1.59613e-12
-5.53596e-13
1.37029e-13
5.21932e-13
-1.56885e-12
1.37877e-12
-3.39646e-12
2.09986e-12
-5.12057e-12
2.47356e-12
-6.37343e-12
2.43678e-12
-6.85578e-12
2.39704e-12
-6.01385e-12
1.87405e-12
-3.06789e-12
2.38932e-12
3.45788e-12
-1.12718e-12
2.73534e-12
-2.0651e-12
3.29013e-12
-2.15343e-12
1.56416e-12
-1.67008e-12
7.60818e-14
-8.28247e-13
-1.05784e-12
2.25598e-13
-2.04006e-12
1.45953e-12
-2.88929e-12
2.79082e-12
-3.59864e-12
4.16143e-12
-4.15008e-12
5.56126e-12
-4.54942e-12
6.81773e-12
-4.57866e-12
7.84295e-12
-4.28528e-12
8.5516e-12
-3.64836e-12
8.87137e-12
-2.67559e-12
8.74905e-12
-1.41633e-12
8.14851e-12
4.69788e-14
6.91589e-12
1.75458e-12
5.32849e-12
2.9662e-12
3.6142e-12
3.81417e-12
1.90209e-12
4.18571e-12
3.37388e-13
4.00151e-12
-8.39343e-13
3.5738e-12
-1.32611e-12
2.36086e-12
-7.2703e-13
1.79027e-12
2.73085e-12
-1.49834e-12
4.23368e-12
-2.2791e-12
4.07089e-12
-1.79827e-12
1.08333e-12
-4.73213e-13
-1.24898e-12
1.36626e-12
-2.89731e-12
3.53875e-12
-4.21254e-12
5.88928e-12
-5.23981e-12
8.25305e-12
-5.9624e-12
1.04669e-11
-6.36392e-12
1.2367e-11
-6.44955e-12
1.40826e-11
-6.29421e-12
1.56018e-11
-5.80446e-12
1.66045e-11
-4.65103e-12
1.70473e-11
-3.11843e-12
1.69038e-11
-1.27273e-12
1.61686e-11
7.82218e-13
1.46008e-11
3.32239e-12
1.23749e-11
5.19216e-12
9.85318e-12
6.33587e-12
7.31681e-12
6.72212e-12
4.83845e-12
6.4799e-12
2.56927e-12
5.84301e-12
7.09241e-13
4.22093e-12
-4.88013e-14
2.54835e-12
2.68206e-12
-1.7471e-12
5.98078e-12
-2.17656e-12
4.50034e-12
-8.79256e-13
-2.13975e-13
1.48178e-12
-3.61002e-12
4.52744e-12
-5.94297e-12
7.99606e-12
-7.68116e-12
1.1638e-11
-8.88174e-12
1.52046e-11
-9.52898e-12
1.84579e-11
-9.61726e-12
2.11943e-11
-9.1859e-12
2.32856e-11
-8.3855e-12
2.50683e-11
-7.58717e-12
2.60704e-11
-5.65309e-12
2.62835e-11
-3.33149e-12
2.57195e-11
-7.08719e-13
2.43542e-11
2.14759e-12
2.19962e-11
5.68034e-12
1.89024e-11
8.28605e-12
1.53219e-11
9.91642e-12
1.15844e-11
1.04596e-11
7.95267e-12
1.01117e-11
4.58036e-12
9.21535e-12
1.69624e-12
7.10509e-12
3.28545e-13
3.91609e-12
3.01061e-12
-1.86932e-12
7.85009e-12
-1.77752e-12
4.40852e-12
4.48707e-13
-2.44021e-12
3.98852e-12
-7.14984e-12
8.37462e-12
-1.03291e-11
1.32491e-11
-1.25556e-11
1.82625e-11
-1.38952e-11
2.30692e-11
-1.43356e-11
2.73457e-11
-1.38938e-11
3.08177e-11
-1.26579e-11
3.32983e-11
-1.08661e-11
3.50641e-11
-9.35289e-12
3.58052e-11
-6.39416e-12
3.54836e-11
-3.00992e-12
3.41892e-11
5.85781e-13
3.16392e-11
4.69762e-12
2.81927e-11
9.1268e-12
2.40233e-11
1.24555e-11
1.93746e-11
1.45652e-11
1.46119e-11
1.52223e-11
1.00274e-11
1.46962e-11
5.8942e-12
1.33486e-11
2.41134e-12
1.0588e-11
6.33428e-13
5.69405e-12
3.64404e-12
-1.89743e-12
9.74751e-12
-1.19344e-12
3.70452e-12
2.00594e-12
-5.63961e-12
6.74604e-12
-1.18899e-11
1.2472e-11
-1.6055e-11
1.87247e-11
-1.88084e-11
2.50506e-11
-2.02211e-11
3.10053e-11
-2.02903e-11
3.6178e-11
-1.90664e-11
4.02223e-11
-1.67022e-11
4.29097e-11
-1.35534e-11
4.4379e-11
-1.08222e-11
4.45809e-11
-6.59603e-12
4.33971e-11
-1.82618e-12
4.10152e-11
2.96775e-12
3.70675e-11
8.6454e-12
3.23073e-11
1.3887e-11
2.69747e-11
1.77882e-11
2.13472e-11
2.01927e-11
1.58331e-11
2.07365e-11
1.07334e-11
1.97959e-11
6.27213e-12
1.781e-11
2.64169e-12
1.42185e-11
7.94598e-13
7.54119e-12
4.43865e-12
-1.8658e-12
1.16133e-11
-5.30334e-13
2.36903e-12
3.57015e-12
-9.7401e-12
9.39728e-12
-1.77171e-11
1.63137e-11
-2.29715e-11
2.37604e-11
-2.62551e-11
3.11838e-11
-2.76444e-11
3.80472e-11
-2.71537e-11
4.38601e-11
-2.48793e-11
4.82112e-11
-2.10533e-11
5.08234e-11
-1.61657e-11
5.18896e-11
-1.18883e-11
5.12585e-11
-5.96488e-12
4.89277e-11
5.04691e-13
4.51565e-11
6.73899e-12
3.96472e-11
1.41547e-11
3.3526e-11
2.00082e-11
2.71148e-11
2.41995e-11
2.07576e-11
2.655e-11
1.48753e-11
2.66188e-11
9.79047e-12
2.48808e-11
5.56504e-12
2.20355e-11
2.2517e-12
1.75319e-11
7.1329e-13
9.07966e-12
5.15195e-12
-1.80231e-12
1.34156e-11
7.23736e-14
4.94326e-13
4.90496e-12
-1.45727e-11
1.15786e-11
-2.43908e-11
1.93883e-11
-3.07812e-11
2.76883e-11
-3.45551e-11
3.58403e-11
-3.57965e-11
4.32343e-11
-3.45477e-11
4.93203e-11
-3.09652e-11
5.36454e-11
-2.53784e-11
5.59065e-11
-1.84267e-11
5.64491e-11
-1.24309e-11
5.48148e-11
-4.33054e-12
5.12699e-11
4.04961e-12
4.56727e-11
1.23362e-11
3.87331e-11
2.10945e-11
3.13902e-11
2.73512e-11
2.41323e-11
3.14574e-11
1.7419e-11
3.32634e-11
1.16428e-11
3.23951e-11
7.12159e-12
2.94021e-11
3.7682e-12
2.53889e-11
1.25553e-12
2.00446e-11
4.01845e-13
9.93341e-12
5.55381e-12
-1.73125e-12
1.51468e-11
5.30077e-13
-1.76702e-12
5.81668e-12
-1.98593e-11
1.29751e-11
-3.15492e-11
2.12488e-11
-3.90549e-11
2.99251e-11
-4.32314e-11
3.83058e-11
-4.41772e-11
4.57352e-11
-4.1977e-11
5.1634e-11
-3.68641e-11
5.55425e-11
-2.92868e-11
5.71608e-11
-2.0045e-11
5.70517e-11
-1.23217e-11
5.43418e-11
-1.62058e-12
4.96405e-11
8.75094e-12
4.22849e-11
1.96918e-11
3.41384e-11
2.92411e-11
2.58176e-11
3.5672e-11
1.8014e-11
3.92611e-11
1.13339e-11
3.99436e-11
6.16125e-12
3.75678e-11
2.7538e-12
3.28096e-11
8.59548e-13
2.72832e-11
-2.67588e-13
2.11718e-11
-1.07033e-13
9.77293e-12
5.4468e-12
-1.66855e-12
1.68154e-11
7.70949e-13
-4.20653e-12
6.1609e-12
-2.52493e-11
1.33556e-11
-3.87439e-11
2.15725e-11
-4.72717e-11
3.00592e-11
-5.17181e-11
3.80884e-11
-5.22063e-11
4.49939e-11
-4.88825e-11
5.02103e-11
-4.20805e-11
5.33172e-11
-3.23937e-11
5.41178e-11
-2.08457e-11
5.29002e-11
-1.1104e-11
4.92319e-11
2.04776e-12
4.34355e-11
1.45474e-11
3.50454e-11
2.8082e-11
2.60458e-11
3.82408e-11
1.71274e-11
4.45904e-11
9.15857e-12
4.723e-11
2.83104e-12
4.62712e-11
-1.35109e-12
4.175e-11
-3.15374e-12
3.46123e-11
-3.06564e-12
2.71952e-11
-2.28502e-12
2.03913e-11
-8.16503e-13
8.30451e-12
4.63032e-12
-1.6215e-12
1.84369e-11
7.57845e-13
-6.58585e-12
5.8638e-12
-3.03552e-11
1.26084e-11
-4.54885e-11
2.02131e-11
-5.48764e-11
2.79175e-11
-5.94225e-11
3.49955e-11
-5.92843e-11
4.08016e-11
-5.46886e-11
4.48143e-11
-4.60931e-11
4.66872e-11
-3.42666e-11
4.63713e-11
-2.05297e-11
4.40722e-11
-8.80487e-12
3.95652e-11
6.55476e-12
3.28331e-11
2.12796e-11
2.40923e-11
3.68228e-11
1.48746e-11
4.74587e-11
5.95216e-12
5.35129e-11
-1.78737e-12
5.49697e-11
-7.45838e-12
5.19423e-11
-1.04267e-11
4.47184e-11
-1.03653e-11
3.45511e-11
-7.92009e-12
2.47501e-11
-4.85904e-12
1.73304e-11
-1.77169e-12
5.2173e-12
2.85867e-12
-1.58821e-12
2.00251e-11
4.915e-13
-8.66547e-12
4.93234e-12
-3.4796e-11
1.07589e-11
-5.13149e-11
1.72307e-11
-6.13481e-11
2.3612e-11
-6.58037e-11
2.92073e-11
-6.48795e-11
3.34162e-11
-5.88974e-11
3.57835e-11
-4.84604e-11
3.60576e-11
-3.45406e-11
3.44281e-11
-1.89002e-11
3.10555e-11
-5.43214e-12
2.59299e-11
1.16804e-11
1.83687e-11
2.88408e-11
1.00727e-11
4.51189e-11
1.47704e-12
5.60544e-11
-6.80829e-12
6.17984e-11
-1.38364e-11
6.19979e-11
-1.8595e-11
5.67012e-11
-2.0345e-11
4.64685e-11
-1.85878e-11
3.27941e-11
-1.37183e-11
1.98808e-11
-8.09632e-12
1.17086e-11
-3.05065e-12
1.71828e-13
-1.91916e-13
-1.55981e-12
2.15851e-11
-1.16035e-14
-1.02135e-11
3.45036e-12
-3.82577e-11
7.96748e-12
-5.58319e-11
1.28839e-11
-6.62643e-11
1.75254e-11
-7.0445e-11
2.12544e-11
-6.86085e-11
2.35299e-11
-6.11728e-11
2.39693e-11
-4.88997e-11
2.24069e-11
-3.29781e-11
1.9355e-11
-1.58482e-11
1.47638e-11
-8.40838e-13
8.86887e-12
1.75754e-11
1.64145e-12
3.60683e-11
-6.09016e-12
5.28506e-11
-1.37991e-11
6.37635e-11
-2.08955e-11
6.88948e-11
-2.66706e-11
6.77731e-11
-3.03463e-11
6.0377e-11
-3.11562e-11
4.72786e-11
-2.82893e-11
2.99274e-11
-2.10954e-11
1.26871e-11
-1.25524e-11
3.16582e-12
-4.96879e-12
-7.4115e-12
-5.16062e-12
-1.51351e-12
2.30988e-11
-6.51159e-13
-1.10755e-11
1.56565e-12
-4.04742e-11
4.5058e-12
-5.87717e-11
7.59565e-12
-6.93539e-11
1.02638e-11
-7.3113e-11
1.19556e-11
-7.03e-11
1.22088e-11
-6.14258e-11
1.06913e-11
-4.73821e-11
7.27807e-12
-2.95647e-11
2.84535e-12
-1.14154e-11
-2.953e-12
4.95761e-12
-9.82025e-12
2.44428e-11
-1.68584e-11
4.31066e-11
-2.40479e-11
6.00402e-11
-3.05273e-11
7.0243e-11
-3.58274e-11
7.41951e-11
-3.97168e-11
7.16627e-11
-4.18931e-11
6.25535e-11
-4.17702e-11
4.7156e-11
-3.82515e-11
2.6409e-11
-3.03736e-11
4.8094e-12
-1.9399e-11
-7.80839e-12
-8.40391e-12
-1.84062e-11
-1.35644e-11
-1.42627e-12
2.45255e-11
-1.32706e-12
-1.11742e-11
-5.2218e-13
-4.12785e-11
6.45448e-13
-5.99388e-11
1.81821e-12
-7.05261e-11
2.48752e-12
-7.37818e-11
2.16809e-12
-6.99802e-11
4.88251e-13
-5.97456e-11
-2.74192e-12
-4.41517e-11
-7.57786e-12
-2.47285e-11
-1.32481e-11
-5.74496e-12
-2.02022e-11
1.19119e-11
-2.79714e-11
3.22121e-11
-3.45443e-11
4.96796e-11
-4.11093e-11
6.66053e-11
-4.65976e-11
7.57315e-11
-5.05021e-11
7.80998e-11
-5.26588e-11
7.38195e-11
-5.32089e-11
6.31038e-11
-5.22011e-11
4.61485e-11
-4.89305e-11
2.31387e-11
-4.21122e-11
-2.00864e-12
-2.99545e-11
-1.99657e-11
-1.42565e-11
-3.41038e-11
-2.78208e-11
-1.22578e-12
2.57519e-11
-1.81484e-12
-1.05843e-11
-2.31867e-12
-4.07739e-11
-2.76622e-12
-5.94905e-11
-3.4051e-12
-6.98865e-11
-4.53832e-12
-7.2648e-11
-6.44803e-12
-6.80699e-11
-9.41827e-12
-5.67749e-11
-1.36805e-11
-3.98891e-11
-1.93474e-11
-1.90613e-11
-2.58078e-11
7.15671e-13
-3.29112e-11
1.90155e-11
-4.05422e-11
3.98433e-11
-4.80896e-11
5.72271e-11
-5.35436e-11
7.20595e-11
-5.84018e-11
8.05899e-11
-6.1983e-11
8.16811e-11
-6.39962e-11
7.58329e-11
-6.45218e-11
6.36296e-11
-6.3915e-11
4.5542e-11
-6.23119e-11
2.15359e-11
-5.82843e-11
-6.03588e-12
-4.92065e-11
-2.9043e-11
-2.54444e-11
-5.78654e-11
-5.3265e-11
-8.12818e-13
2.65656e-11
-1.75289e-12
-9.64314e-12
-3.1319e-12
-3.93937e-11
-4.84188e-12
-5.77795e-11
-6.85552e-12
-6.78719e-11
-9.2832e-12
-7.02195e-11
-1.22818e-11
-6.50706e-11
-1.59809e-11
-5.30752e-11
-2.04546e-11
-3.54149e-11
-2.57743e-11
-1.37412e-11
-3.19749e-11
6.91665e-12
-3.80842e-11
2.5125e-11
-4.44752e-11
4.62345e-11
-5.11394e-11
6.38914e-11
-5.60673e-11
7.69875e-11
-5.99571e-11
8.44799e-11
-6.39185e-11
8.56426e-11
-6.7742e-11
7.96565e-11
-7.16148e-11
6.75026e-11
-7.57908e-11
4.97182e-11
-8.04067e-11
2.61521e-11
-8.36216e-11
-2.82067e-12
-8.30859e-11
-2.95782e-11
-5.39328e-11
-8.70179e-11
-1.07198e-10
-5.83166e-13
2.71499e-11
-2.01043e-12
-8.2145e-12
-4.12667e-12
-3.72761e-11
-6.51341e-12
-5.53914e-11
-9.06142e-12
-6.53228e-11
-1.17477e-11
-6.75322e-11
-1.45797e-11
-6.22377e-11
-1.75329e-11
-5.01213e-11
-2.05009e-11
-3.24462e-11
-2.3719e-11
-1.05225e-11
-2.85651e-11
1.17631e-11
-3.30562e-11
2.96164e-11
-3.65703e-11
4.97489e-11
-3.95553e-11
6.68766e-11
-4.20114e-11
7.94438e-11
-4.41766e-11
8.66452e-11
-4.69034e-11
8.83696e-11
-5.21282e-11
8.48814e-11
-6.1829e-11
7.72035e-11
-7.82827e-11
6.61721e-11
-1.03168e-10
5.10378e-11
-1.32373e-10
2.63847e-11
-1.56723e-10
-5.22746e-12
-1.36673e-10
-1.07067e-10
-2.43871e-10
-4.05569e-13
2.75568e-11
-2.11623e-12
-6.50226e-12
-4.75209e-12
-3.46387e-11
-7.88414e-12
-5.22579e-11
-1.10472e-11
-6.21584e-11
-1.39055e-11
-6.46727e-11
-1.62173e-11
-5.9925e-11
-1.78268e-11
-4.85109e-11
-1.87028e-11
-3.15694e-11
-1.84743e-11
-1.07505e-11
-1.80354e-11
1.13247e-11
-2.0071e-11
3.16524e-11
-1.94771e-11
4.91552e-11
-1.80022e-11
6.5402e-11
-1.57879e-11
7.72297e-11
-1.36005e-11
8.4458e-11
-1.28688e-11
8.76379e-11
-1.62397e-11
8.82524e-11
-2.74883e-11
8.84523e-11
-5.22233e-11
9.09073e-11
-9.96e-11
9.84148e-11
-1.83653e-10
1.10438e-10
-2.9588e-10
1.07e-10
-3.81108e-10
-2.18391e-11
-6.24979e-10
-1.08966e-12
2.86479e-11
-5.49187e-12
-2.09838e-12
-1.18395e-11
-2.82895e-11
-1.8812e-11
-4.52839e-11
-2.53511e-11
-5.56179e-11
-3.04652e-11
-5.95574e-11
-3.32737e-11
-5.71154e-11
-3.30532e-11
-4.87306e-11
-2.92493e-11
-3.53725e-11
-2.14597e-11
-1.85395e-11
-1.03801e-11
2.4563e-13
3.11976e-12
1.8153e-11
1.78087e-11
3.44666e-11
3.45344e-11
4.86765e-11
5.23202e-11
5.94441e-11
7.03009e-11
6.64774e-11
8.76139e-11
7.0325e-11
1.03464e-10
7.24023e-11
1.17384e-10
7.45325e-11
1.29199e-10
7.90918e-11
1.38795e-10
8.88194e-11
1.4322e-10
1.06014e-10
1.15903e-10
1.34318e-10
-9.24554e-11
1.86519e-10
2.02792e-10
-9.20226e-10
-9.14378e-13
2.95637e-11
-4.9196e-12
1.90852e-12
-1.07255e-11
-2.24819e-11
-1.71737e-11
-3.88342e-11
-2.32008e-11
-4.95894e-11
-2.78035e-11
-5.49535e-11
-3.0088e-11
-5.48299e-11
-2.93241e-11
-4.94935e-11
-2.50023e-11
-3.96936e-11
-1.69272e-11
-2.6614e-11
-4.94699e-12
-1.17341e-11
9.77343e-12
3.43291e-12
2.69403e-11
1.73e-11
4.62248e-11
2.93921e-11
6.68831e-11
3.8786e-11
8.8105e-11
4.52557e-11
1.09186e-10
4.92444e-11
1.29734e-10
5.18538e-11
1.49508e-10
5.47593e-11
1.68312e-10
6.02877e-11
1.8546e-10
7.1672e-11
1.97752e-10
9.37225e-11
1.97815e-10
1.34255e-10
1.82044e-10
2.02291e-10
2.84992e-10
9.98445e-11
-6.51344e-13
3.02165e-11
-4.03616e-12
5.29501e-12
-8.98386e-12
-1.75326e-11
-1.44628e-11
-3.33538e-11
-1.94804e-11
-4.45705e-11
-2.30762e-11
-5.13565e-11
-2.4384e-11
-5.3521e-11
-2.26951e-11
-5.11816e-11
-1.75091e-11
-4.48789e-11
-8.59024e-12
-3.55323e-11
4.02962e-12
-2.43535e-11
2.00486e-11
-1.25857e-11
3.87918e-11
-1.44292e-12
5.98836e-11
8.30053e-12
8.26707e-11
1.59991e-11
1.06461e-10
2.14655e-11
1.30643e-10
2.50626e-11
1.54766e-10
2.77307e-11
1.78522e-10
3.10034e-11
2.01642e-10
3.71678e-11
2.23789e-10
4.95255e-11
2.44564e-10
7.29486e-11
2.64779e-10
1.14039e-10
2.88577e-10
1.78494e-10
2.60331e-10
3.13238e-10
-3.23234e-13
3.05412e-11
-2.90114e-12
7.87458e-12
-6.72032e-12
-1.37118e-11
-1.08786e-11
-2.91941e-11
-1.44859e-11
-4.09618e-11
-1.66608e-11
-4.91805e-11
-1.6597e-11
-5.35838e-11
-1.36248e-11
-5.4153e-11
-7.26044e-12
-5.12427e-11
2.75028e-12
-4.55425e-11
1.639e-11
-3.79928e-11
3.34499e-11
-2.96453e-11
5.34606e-11
-2.14533e-11
7.59447e-11
-1.41834e-11
1.00308e-10
-8.36434e-12
1.25919e-10
-4.14459e-12
1.52178e-10
-1.19646e-12
1.78572e-10
1.33657e-12
2.04739e-10
4.83687e-12
2.30352e-10
1.15545e-11
2.55359e-10
2.45194e-11
2.8032e-10
4.79878e-11
3.07335e-10
8.70254e-11
3.40473e-10
1.45356e-10
2.20781e-10
3.80024e-10
5.96463e-14
3.0483e-11
-1.55662e-12
9.49251e-12
-4.02337e-12
-1.12435e-11
-6.57642e-12
-2.66395e-11
-8.44585e-12
-3.90911e-11
-8.85308e-12
-4.87722e-11
-7.07293e-12
-5.5363e-11
-2.49413e-12
-5.8731e-11
5.33253e-12
-5.90687e-11
1.66647e-11
-5.68742e-11
3.15254e-11
-5.28532e-11
4.97207e-11
-4.78403e-11
7.08937e-11
-4.26261e-11
9.45782e-11
-3.78677e-11
1.20218e-10
-3.40041e-11
1.47217e-10
-3.11437e-11
1.75001e-10
-2.89799e-11
2.03065e-10
-2.67274e-11
2.30964e-10
-2.30621e-11
2.58506e-10
-1.59871e-11
2.85816e-10
-2.78962e-12
3.13757e-10
2.00466e-11
3.44194e-10
5.65885e-11
3.79693e-10
1.09857e-10
1.81227e-10
4.19246e-10
4.82078e-13
3.00023e-11
-8.65376e-14
1.00628e-11
-1.05855e-12
-1.02698e-11
-1.81742e-12
-2.58792e-11
-1.72473e-12
-3.91825e-11
-1.16938e-13
-5.03789e-11
3.636e-12
-5.9115e-11
1.0076e-11
-6.51703e-11
1.96079e-11
-6.86e-11
3.24606e-11
-6.97264e-11
4.86787e-11
-6.9071e-11
6.8108e-11
-6.72694e-11
9.04402e-11
-6.4958e-11
1.15247e-10
-6.26746e-11
1.42016e-10
-6.07725e-11
1.70196e-10
-5.93235e-11
1.99253e-10
-5.80369e-11
2.28719e-10
-5.61938e-11
2.58243e-10
-5.25858e-11
2.87707e-10
-4.54505e-11
3.17352e-10
-3.24343e-11
3.48026e-10
-1.06266e-11
3.8142e-10
2.3194e-11
4.19332e-10
7.19455e-11
1.38131e-10
4.62428e-10
9.16951e-13
2.90868e-11
1.43157e-12
9.54985e-12
2.0166e-12
-1.08532e-11
3.146e-12
-2.70071e-11
5.32488e-12
-4.13601e-11
9.09463e-12
-5.41475e-11
1.49828e-11
-6.50023e-11
2.34498e-11
-7.36366e-11
3.48451e-11
-7.99947e-11
4.93739e-11
-8.42549e-11
6.70795e-11
-8.67762e-11
8.78385e-11
-8.80281e-11
1.11382e-10
-8.85012e-11
1.37327e-10
-8.86197e-11
1.65213e-10
-8.86585e-11
1.94547e-10
-8.8657e-11
2.24855e-10
-8.8345e-11
2.55741e-10
-8.70798e-11
2.86952e-10
-8.3796e-11
3.18469e-10
-7.69678e-11
3.50641e-10
-6.46054e-11
3.84334e-10
-4.43195e-11
4.21036e-10
-1.35081e-11
4.626e-10
3.03816e-11
8.97577e-11
5.10973e-10
1.34106e-12
2.77472e-11
2.93467e-12
7.95795e-12
5.06493e-12
-1.29819e-11
8.09219e-12
-3.00329e-11
1.2387e-11
-4.56535e-11
1.83684e-11
-6.01279e-11
2.64582e-11
-7.30913e-11
3.70336e-11
-8.42112e-11
5.03853e-11
-9.33459e-11
6.66868e-11
-1.00556e-10
8.59758e-11
-1.06065e-10
1.08149e-10
-1.10201e-10
1.32976e-10
-1.13328e-10
1.60122e-10
-1.15766e-10
1.89186e-10
-1.17723e-10
2.19742e-10
-1.19213e-10
2.51391e-10
-1.19994e-10
2.83822e-10
-1.1951e-10
3.16878e-10
-1.16852e-10
3.50647e-10
-1.10736e-10
3.85562e-10
-9.95205e-11
4.22519e-10
-8.12761e-11
4.62943e-10
-5.39321e-11
5.08771e-10
-1.54461e-11
3.60724e-11
5.62456e-10
1.76016e-12
2.59886e-11
4.34807e-12
5.37179e-12
7.96868e-12
-1.66008e-11
1.28339e-11
-3.48966e-11
1.91932e-11
-5.20116e-11
2.73502e-11
-6.82838e-11
3.76254e-11
-8.33656e-11
5.03127e-11
-9.68979e-11
6.56433e-11
-1.08676e-10
8.37559e-11
-1.18668e-10
1.04679e-10
-1.26988e-10
1.28325e-10
-1.33847e-10
1.54498e-10
-1.395e-10
1.82915e-10
-1.44183e-10
2.13237e-10
-1.48045e-10
2.45111e-10
-1.51087e-10
2.78218e-10
-1.53101e-10
3.12334e-10
-1.53626e-10
3.47395e-10
-1.51913e-10
3.83576e-10
-1.46917e-10
4.21378e-10
-1.37323e-10
4.61717e-10
-1.21614e-10
5.05981e-10
-9.81959e-11
5.56086e-10
-6.55519e-11
-2.24179e-11
6.14577e-10
2.11714e-12
2.3873e-11
5.6465e-12
1.84421e-12
1.06454e-11
-2.1598e-11
1.72286e-11
-4.14783e-11
2.5535e-11
-6.03167e-11
3.57623e-11
-7.851e-11
4.81349e-11
-9.57373e-11
6.28682e-11
-1.11631e-10
8.01349e-11
-1.25942e-10
1.00038e-10
-1.38571e-10
1.22596e-10
-1.49545e-10
1.47731e-10
-1.58982e-10
1.75282e-10
-1.67051e-10
2.05016e-10
-1.73916e-10
2.36655e-10
-1.79684e-10
2.69921e-10
-1.84352e-10
3.04574e-10
-1.87754e-10
3.4047e-10
-1.89523e-10
3.77626e-10
-1.89068e-10
4.16283e-10
-1.85574e-10
4.56983e-10
-1.78023e-10
5.00636e-10
-1.65267e-10
5.48569e-10
-1.46129e-10
6.02575e-10
-1.19558e-10
-8.48103e-11
6.64967e-10
2.43944e-12
2.14351e-11
6.79958e-12
-2.51412e-12
1.3036e-11
-2.78327e-11
2.11765e-11
-4.96172e-11
3.12647e-11
-7.04036e-11
4.34022e-11
-9.06464e-11
5.77272e-11
-1.10062e-10
7.43821e-11
-1.28285e-10
9.34844e-11
-1.45044e-10
1.15103e-10
-1.6019e-10
1.39243e-10
-1.73685e-10
1.65838e-10
-1.85577e-10
1.94754e-10
-1.95967e-10
2.25805e-10
-2.04967e-10
2.58775e-10
-2.12654e-10
2.93453e-10
-2.1903e-10
3.29672e-10
-2.23973e-10
3.67361e-10
-2.27211e-10
4.06598e-10
-2.28305e-10
4.4767e-10
-2.26646e-10
4.91131e-10
-2.21485e-10
5.37856e-10
-2.11991e-10
5.89075e-10
-1.97348e-10
6.46398e-10
-1.76881e-10
-1.50226e-10
7.11814e-10
2.72029e-12
1.87164e-11
7.79326e-12
-7.58525e-12
1.51069e-11
-3.51445e-11
2.46181e-11
-5.91268e-11
3.62887e-11
-8.20729e-11
5.01386e-11
-1.04495e-10
6.62282e-11
-1.2615e-10
8.46345e-11
-1.4669e-10
1.05424e-10
-1.65833e-10
1.28634e-10
-1.83399e-10
1.54256e-10
-1.99306e-10
1.8223e-10
-2.13551e-10
2.12448e-10
-2.26185e-10
2.44765e-10
-2.37284e-10
2.79019e-10
-2.46908e-10
3.1506e-10
-2.5507e-10
3.52784e-10
-2.61697e-10
3.9218e-10
-2.66607e-10
4.33372e-10
-2.69498e-10
4.76671e-10
-2.69945e-10
5.22619e-10
-2.67433e-10
5.7203e-10
-2.61402e-10
6.26011e-10
-2.51329e-10
6.85966e-10
-2.36836e-10
-2.17824e-10
7.53563e-10
2.95268e-12
1.57654e-11
8.62145e-12
-1.32521e-11
1.68449e-11
-4.33661e-11
2.75266e-11
-6.9807e-11
4.05629e-11
-9.51079e-11
5.59026e-11
-1.19834e-10
7.35405e-11
-1.43787e-10
9.3495e-11
-1.66644e-10
1.15787e-10
-1.88125e-10
1.40424e-10
-2.08036e-10
1.67384e-10
-2.26266e-10
1.96612e-10
-2.42778e-10
2.28019e-10
-2.57593e-10
2.61497e-10
-2.70762e-10
2.96928e-10
-2.82339e-10
3.34212e-10
-2.92355e-10
3.73301e-10
-3.00785e-10
4.14226e-10
-3.07533e-10
4.57144e-10
-3.12416e-10
5.02371e-10
-3.15172e-10
5.5042e-10
-3.15482e-10
6.02028e-10
-3.1301e-10
6.58166e-10
-3.07468e-10
7.20032e-10
-2.98702e-10
-2.86795e-10
7.89002e-10
3.13793e-12
1.26291e-11
9.28651e-12
-1.93988e-11
1.82533e-11
-5.23311e-11
2.99037e-11
-8.14558e-11
4.40813e-11
-1.09284e-10
6.0678e-11
-1.36429e-10
7.96316e-11
-1.6274e-10
1.0091e-10
-1.87923e-10
1.24496e-10
-2.11711e-10
1.50366e-10
-2.33906e-10
1.78487e-10
-2.54386e-10
2.08804e-10
-2.73096e-10
2.41246e-10
-2.90035e-10
2.7573e-10
-3.05246e-10
3.12176e-10
-3.18785e-10
3.50525e-10
-3.30704e-10
3.90768e-10
-3.41028e-10
4.32969e-10
-3.49734e-10
4.77302e-10
-3.56748e-10
5.24074e-10
-3.61945e-10
5.7376e-10
-3.65167e-10
6.27011e-10
-3.6626e-10
6.84663e-10
-3.65121e-10
7.47722e-10
-3.61761e-10
-3.56385e-10
8.17312e-10
3.27807e-12
9.3528e-12
9.79758e-12
-2.59163e-11
1.93483e-11
-6.18799e-11
3.17709e-11
-9.38767e-11
4.68695e-11
-1.24381e-10
6.44889e-11
-1.54048e-10
8.4521e-11
-1.82771e-10
1.06891e-10
-2.10292e-10
1.31545e-10
-2.36364e-10
1.58436e-10
-2.60797e-10
1.87517e-10
-2.83467e-10
2.18732e-10
-3.04311e-10
2.52021e-10
-3.23324e-10
2.8732e-10
-3.40545e-10
3.24577e-10
-3.56041e-10
3.63764e-10
-3.69891e-10
4.04899e-10
-3.82163e-10
4.48069e-10
-3.92904e-10
4.9345e-10
-4.02129e-10
5.41335e-10
-4.0983e-10
5.92148e-10
-4.15981e-10
6.46459e-10
-4.20571e-10
7.04977e-10
-4.23638e-10
7.68534e-10
-4.25318e-10
-4.25895e-10
8.38044e-10
3.37729e-12
5.97728e-12
1.01672e-11
-3.27041e-11
2.01542e-11
-7.18651e-11
3.31647e-11
-1.06885e-10
4.89734e-11
-1.40189e-10
6.73897e-11
-1.72463e-10
8.82669e-11
-2.03648e-10
1.11495e-10
-2.3352e-10
1.36989e-10
-2.61858e-10
1.64679e-10
-2.88488e-10
1.94505e-10
-3.13293e-10
2.26409e-10
-3.36214e-10
2.60333e-10
-3.57249e-10
2.96231e-10
-3.76442e-10
3.34067e-10
-3.93878e-10
3.73835e-10
-4.09659e-10
4.1557e-10
-4.23899e-10
4.59369e-10
-4.36703e-10
5.05405e-10
-4.48165e-10
5.53946e-10
-4.58371e-10
6.05367e-10
-4.67402e-10
6.60155e-10
-4.7536e-10
7.18906e-10
-4.8239e-10
7.82304e-10
-4.88716e-10
-4.94679e-10
8.51088e-10
3.4393e-12
2.53979e-12
1.04105e-11
-3.96733e-11
2.07005e-11
-8.21531e-11
3.41296e-11
-1.20313e-10
5.04537e-11
-1.56511e-10
6.94539e-11
-1.91462e-10
9.09536e-11
-2.25147e-10
1.14813e-10
-2.57379e-10
1.40921e-10
-2.87966e-10
1.6919e-10
-3.16756e-10
1.99542e-10
-3.43646e-10
2.31916e-10
-3.68588e-10
2.66256e-10
-3.91589e-10
3.02522e-10
-4.12708e-10
3.40691e-10
-4.32046e-10
3.80768e-10
-4.49736e-10
4.22798e-10
-4.65929e-10
4.66877e-10
-4.80782e-10
5.13169e-10
-4.94457e-10
5.61912e-10
-5.07114e-10
6.13432e-10
-5.18922e-10
6.68141e-10
-5.30069e-10
7.26532e-10
-5.4078e-10
7.89162e-10
-5.51347e-10
-5.62143e-10
8.56625e-10
3.4691e-12
-9.27443e-13
1.05431e-11
-4.67451e-11
2.10181e-11
-9.26261e-11
3.47152e-11
-1.34008e-10
5.13772e-11
-1.73172e-10
7.07663e-11
-2.1085e-10
9.26816e-11
-2.47061e-10
1.16959e-10
-2.81656e-10
1.43467e-10
-3.14474e-10
1.72097e-10
-3.45386e-10
2.02762e-10
-3.7431e-10
2.35389e-10
-4.01215e-10
2.69923e-10
-4.26123e-10
3.06326e-10
-4.4911e-10
3.44578e-10
-4.70299e-10
3.84692e-10
-4.8985e-10
4.26712e-10
-5.07949e-10
4.7073e-10
-5.248e-10
5.16892e-10
-5.40619e-10
5.65407e-10
-5.55629e-10
6.16551e-10
-5.70066e-10
6.70666e-10
-5.84183e-10
7.28155e-10
-5.9827e-10
7.89467e-10
-6.1266e-10
-6.27751e-10
8.55075e-10
3.47053e-12
-4.39605e-12
1.05806e-11
-5.38531e-11
2.11385e-11
-1.03182e-10
3.49704e-11
-1.47838e-10
5.18136e-11
-1.90014e-10
7.14154e-11
-2.30451e-10
9.35578e-11
-2.69203e-10
1.18058e-10
-3.06156e-10
1.44764e-10
-3.4118e-10
1.73553e-10
-3.74175e-10
2.04324e-10
-4.05081e-10
2.36996e-10
-4.33888e-10
2.7151e-10
-4.60637e-10
3.07823e-10
-4.85424e-10
3.45919e-10
-5.08395e-10
3.85806e-10
-5.29737e-10
4.27527e-10
-5.4967e-10
4.71162e-10
-5.68435e-10
5.16837e-10
-5.86294e-10
5.64728e-10
-6.03521e-10
6.15064e-10
-6.20402e-10
6.68125e-10
-6.37244e-10
7.24233e-10
-6.54378e-10
7.83744e-10
-6.72171e-10
-6.91035e-10
8.47028e-10
3.44823e-12
-7.84231e-12
1.05374e-11
-6.094e-11
2.10909e-11
-1.13733e-10
3.49434e-11
-1.61689e-10
5.18297e-11
-2.06899e-10
7.14892e-11
-2.5011e-10
9.36902e-11
-2.91403e-10
1.18235e-10
-3.307e-10
1.44956e-10
-3.67901e-10
1.73716e-10
-4.02935e-10
2.04403e-10
-4.35768e-10
2.36925e-10
-4.6641e-10
2.71216e-10
-4.94928e-10
3.07229e-10
-5.21438e-10
3.44943e-10
-5.46109e-10
3.84361e-10
-5.69155e-10
4.25515e-10
-5.90824e-10
4.68473e-10
-6.11394e-10
5.13339e-10
-6.3116e-10
5.60255e-10
-6.50437e-10
6.09406e-10
-6.69553e-10
6.61012e-10
-6.8885e-10
7.15327e-10
-7.08693e-10
7.72625e-10
-7.29469e-10
-7.51596e-10
8.33185e-10
3.40538e-12
-1.12457e-11
1.04269e-11
-6.79593e-11
2.09028e-11
-1.24207e-10
3.46778e-11
-1.75462e-10
5.14893e-11
-2.23709e-10
7.10708e-11
-2.6969e-10
9.31822e-11
-3.13514e-10
1.17614e-10
-3.55131e-10
1.44186e-10
-3.94473e-10
1.72748e-10
-4.31498e-10
2.03176e-10
-4.66196e-10
2.3537e-10
-4.98605e-10
2.69254e-10
-5.28812e-10
3.04774e-10
-5.56958e-10
3.41901e-10
-5.83236e-10
3.80629e-10
-6.07883e-10
4.20979e-10
-6.31175e-10
4.63002e-10
-6.53417e-10
5.06778e-10
-6.74936e-10
5.52416e-10
-6.96076e-10
6.0006e-10
-7.17197e-10
6.49877e-10
-7.38668e-10
7.02057e-10
-7.60873e-10
7.56801e-10
-7.84213e-10
-8.09106e-10
8.14312e-10
3.34591e-12
-1.45895e-11
1.02607e-11
-7.48717e-11
2.05981e-11
-1.34542e-10
3.42139e-11
-1.89076e-10
5.08494e-11
-2.40343e-10
7.02371e-11
-2.89077e-10
9.21303e-11
-3.35407e-10
1.16311e-10
-3.79311e-10
1.42589e-10
-4.20751e-10
1.70803e-10
-4.59712e-10
2.00818e-10
-4.96211e-10
2.32525e-10
-5.30311e-10
2.65837e-10
-5.62124e-10
3.00692e-10
-5.91814e-10
3.3705e-10
-6.19595e-10
3.74896e-10
-6.45729e-10
4.14236e-10
-6.70515e-10
4.55102e-10
-6.94283e-10
4.97549e-10
-7.17383e-10
5.41658e-10
-7.40186e-10
5.8753e-10
-7.63069e-10
6.35286e-10
-7.86423e-10
6.85058e-10
-8.10645e-10
7.36983e-10
-8.36138e-10
-8.63316e-10
7.91192e-10
3.27221e-12
-1.78596e-11
1.00492e-11
-8.16462e-11
2.01981e-11
-1.44689e-10
3.35865e-11
-2.02463e-10
4.99618e-11
-2.56717e-10
6.90568e-11
-3.08171e-10
9.06219e-11
-3.56971e-10
1.14433e-10
-4.03121e-10
1.40291e-10
-4.4661e-10
1.68026e-10
-4.87447e-10
1.97493e-10
-5.25679e-10
2.28573e-10
-5.61391e-10
2.61169e-10
-5.94721e-10
2.9521e-10
-6.25854e-10
3.30644e-10
-6.5503e-10
3.67443e-10
-6.82528e-10
4.05599e-10
-7.08671e-10
4.45123e-10
-7.33808e-10
4.86049e-10
-7.58309e-10
5.28425e-10
-7.82562e-10
5.72318e-10
-8.06962e-10
6.17802e-10
-8.31908e-10
6.6496e-10
-8.57803e-10
7.1387e-10
-8.8505e-10
-9.14049e-10
7.64603e-10
3.18741e-12
-2.10448e-11
9.8009e-12
-8.82572e-11
1.97211e-11
-1.54607e-10
3.28264e-11
-2.15566e-10
4.88711e-11
-2.7276e-10
6.75912e-11
-3.2689e-10
8.87356e-11
-3.78115e-10
1.12075e-10
-4.26461e-10
1.37407e-10
-4.71941e-10
1.64551e-10
-5.14592e-10
1.93354e-10
-5.54483e-10
2.23688e-10
-5.91725e-10
2.55446e-10
-6.26479e-10
2.88546e-10
-6.58954e-10
3.22925e-10
-6.89409e-10
3.58541e-10
-7.18145e-10
3.9537e-10
-7.45501e-10
4.33406e-10
-7.71844e-10
4.72657e-10
-7.97561e-10
5.13146e-10
-8.23051e-10
5.54902e-10
-8.48718e-10
5.97963e-10
-8.74969e-10
6.42364e-10
-9.02204e-10
6.88134e-10
-9.3082e-10
-9.612e-10
7.35285e-10
3.09317e-12
-2.41357e-11
9.52366e-12
-9.46851e-11
1.91828e-11
-1.64264e-10
3.19595e-11
-2.28341e-10
4.76167e-11
-2.88416e-10
6.58936e-11
-3.45166e-10
8.65401e-11
-3.98761e-10
1.09325e-10
-4.49246e-10
1.34039e-10
-4.96656e-10
1.60498e-10
-5.41051e-10
1.88541e-10
-5.82525e-10
2.18028e-10
-6.21213e-10
2.48846e-10
-6.57298e-10
2.809e-10
-6.91009e-10
3.14117e-10
-7.22626e-10
3.48441e-10
-7.52469e-10
3.83833e-10
-7.80893e-10
4.20268e-10
-8.08279e-10
4.57732e-10
-8.35025e-10
4.9622e-10
-8.61539e-10
5.35733e-10
-8.88232e-10
5.76273e-10
-9.15508e-10
6.17833e-10
-9.43765e-10
6.60398e-10
-9.73385e-10
-1.00473e-09
7.0393e-10
2.99196e-12
-2.71253e-11
9.22354e-12
-1.00914e-10
1.85963e-11
-1.73634e-10
3.10088e-11
-2.40752e-10
4.62317e-11
-3.03637e-10
6.40105e-11
-3.62944e-10
8.40961e-11
-4.18846e-10
1.06257e-10
-4.71406e-10
1.3028e-10
-5.20679e-10
1.55976e-10
-5.66747e-10
1.83177e-10
-6.09726e-10
2.11737e-10
-6.49774e-10
2.41532e-10
-6.87093e-10
2.72457e-10
-7.21935e-10
3.04429e-10
-7.54598e-10
3.37378e-10
-7.85418e-10
3.7125e-10
-8.14765e-10
4.06002e-10
-8.43031e-10
4.41601e-10
-8.70624e-10
4.78017e-10
-8.97956e-10
5.15225e-10
-9.2544e-10
5.53192e-10
-9.53476e-10
5.9188e-10
-9.82453e-10
6.31232e-10
-1.01274e-09
-1.04467e-09
6.71169e-10
2.88488e-12
-3.00078e-11
8.90618e-12
-1.06933e-10
1.7973e-11
-1.82699e-10
2.99928e-11
-2.52769e-10
4.47456e-11
-3.18389e-10
6.19819e-11
-3.80179e-10
8.14561e-11
-4.3832e-10
1.02937e-10
-4.92887e-10
1.2621e-10
-5.43953e-10
1.51081e-10
-5.91619e-10
1.77376e-10
-6.36023e-10
2.04944e-10
-6.77342e-10
2.33651e-10
-7.158e-10
2.63385e-10
-7.51669e-10
2.94049e-10
-7.85263e-10
3.25563e-10
-8.16932e-10
3.57858e-10
-8.4706e-10
3.90875e-10
-8.76049e-10
4.24563e-10
-9.04312e-10
4.58872e-10
-9.32265e-10
4.93749e-10
-9.60317e-10
5.29137e-10
-9.88865e-10
5.64967e-10
-1.01828e-09
6.01148e-10
-1.04892e-09
-1.08109e-09
6.37566e-10
2.77389e-12
-3.27792e-11
8.57593e-12
-1.12732e-10
1.73223e-11
-1.91442e-10
2.89284e-11
-2.64373e-10
4.31826e-11
-3.32641e-10
5.98425e-11
-3.96838e-10
7.86661e-11
-4.57144e-10
9.94232e-11
-5.13644e-10
1.21899e-10
-5.66429e-10
1.45896e-10
-6.15617e-10
1.71238e-10
-6.61364e-10
1.97764e-10
-7.03869e-10
2.25336e-10
-7.43373e-10
2.53832e-10
-7.80166e-10
2.83146e-10
-8.14577e-10
3.13186e-10
-8.46973e-10
3.43871e-10
-8.77746e-10
3.75127e-10
-9.07306e-10
4.06887e-10
-9.36072e-10
4.39082e-10
-9.64459e-10
4.71638e-10