/*--------------------------------*- C++ -*----------------------------------*\
  =========                 |
  \\      /  F ield         | OpenFOAM: The Open Source CFD Toolbox
   \\    /   O peration     | Website:  https://openfoam.org
    \\  /    A nd           | Version:  13
     \\/     M anipulation  |
\*---------------------------------------------------------------------------*/
FoamFile
{
    format      ascii;
    class       surfaceScalarField;
    location    "3";
    object      phi;
}
// * * * * * * * * * * * * * * * * * * * * * * * * * * * * * * * * * * * * * //

dimensions      [0 3 -1 0 0 0 0];

internalField   nonuniform List<scalar> 
12590
(
-2.11284e-10
7.09187e-09
7.27821e-10
9.10969e-09
3.94028e-10
8.28758e-09
2.65865e-09
7.71947e-09
2.48751e-09
7.04837e-09
4.97807e-09
6.78842e-09
4.91392e-09
6.17306e-09
7.74926e-09
5.94531e-09
7.87395e-09
5.43621e-09
1.07828e-08
5.48434e-09
1.11365e-08
5.23955e-09
1.35845e-08
5.50814e-09
1.33093e-08
5.53323e-09
1.49588e-08
5.74563e-09
1.44465e-08
5.27825e-09
1.64338e-08
4.59297e-09
1.72077e-08
3.42972e-09
2.01883e-08
2.51606e-09
2.24031e-08
1.39594e-09
2.58155e-08
1.08873e-09
2.73948e-08
1.62584e-09
2.78593e-08
3.54542e-09
2.44929e-08
7.17268e-09
1.54558e-08
1.35317e-08
1.66711e-08
2.56002e-09
1.29184e-08
6.18725e-09
1.64212e-08
8.84976e-09
1.54764e-08
1.22627e-08
1.47158e-08
1.38253e-08
1.45686e-08
1.60421e-08
1.45357e-08
1.62203e-08
1.44337e-08
1.75754e-08
1.42862e-08
1.7342e-08
1.41914e-08
1.85656e-08
1.40123e-08
1.83633e-08
1.37929e-08
1.98972e-08
1.38002e-08
1.95101e-08
1.38326e-08
2.07195e-08
1.34807e-08
2.06398e-08
1.24527e-08
2.19509e-08
1.10649e-08
2.21112e-08
9.49058e-09
2.29164e-08
8.06638e-09
2.27766e-08
6.92377e-09
2.23434e-08
6.52971e-09
2.09683e-08
7.55701e-09
1.81093e-08
1.03365e-08
1.43439e-08
1.63226e-08
7.70391e-09
2.47367e-08
2.57174e-08
3.46684e-09
1.81073e-08
7.72895e-09
2.34434e-08
1.04143e-08
2.31648e-08
1.32578e-08
2.31715e-08
1.37503e-08
2.37411e-08
1.47623e-08
2.44073e-08
1.40191e-08
2.45821e-08
1.50182e-08
2.41629e-08
1.42997e-08
2.37271e-08
1.56742e-08
2.35095e-08
1.54722e-08
2.31076e-08
1.68611e-08
2.2834e-08
1.63288e-08
2.29225e-08
1.67068e-08
2.2661e-08
1.55732e-08
2.13777e-08
1.57533e-08
1.93288e-08
1.50351e-08
1.71951e-08
1.48076e-08
1.54129e-08
1.36733e-08
1.40449e-08
1.27409e-08
1.34183e-08
1.10246e-08
1.40159e-08
9.39426e-09
1.71674e-08
6.45934e-09
2.34291e-08
3.06531e-09
3.32341e-08
3.00456e-08
3.63117e-09
2.35521e-08
7.70499e-09
3.08694e-08
1.00149e-08
3.14847e-08
1.22559e-08
3.20428e-08
1.27836e-08
3.27902e-08
1.39692e-08
3.33943e-08
1.3357e-08
3.33691e-08
1.39614e-08
3.30079e-08
1.36066e-08
3.23989e-08
1.51058e-08
3.1618e-08
1.53805e-08
3.1199e-08
1.68112e-08
3.13628e-08
1.63166e-08
3.18445e-08
1.62437e-08
3.21096e-08
1.43871e-08
3.10914e-08
1.35572e-08
2.86332e-08
1.24013e-08
2.56106e-08
1.19003e-08
2.31802e-08
1.08161e-08
2.13566e-08
9.61422e-09
2.02354e-08
8.34556e-09
2.03556e-08
6.35005e-09
2.27838e-08
5.35319e-09
3.00775e-08
2.26006e-09
4.03788e-08
3.36941e-08
3.42392e-09
2.94376e-08
6.86471e-09
3.89012e-08
8.56683e-09
4.00917e-08
1.01963e-08
4.07722e-08
9.80411e-09
4.15996e-08
9.4767e-09
4.22875e-08
8.00453e-09
4.22595e-08
7.91711e-09
4.12226e-08
7.71934e-09
3.96176e-08
9.84701e-09
3.82198e-08
1.16414e-08
3.7383e-08
1.45752e-08
3.76836e-08
1.58001e-08
3.8855e-08
1.67136e-08
4.02292e-08
1.51341e-08
4.03097e-08
1.37896e-08
3.80746e-08
1.23172e-08
3.43571e-08
1.16835e-08
3.09549e-08
1.08512e-08
2.84466e-08
1.01166e-08
2.68457e-08
8.67832e-09
2.6365e-08
7.78046e-09
2.877e-08
5.51171e-09
3.55733e-08
3.64116e-09
4.6964e-08
3.86202e-08
2.75933e-09
3.61495e-08
5.3353e-09
4.73534e-08
6.07505e-09
4.87695e-08
5.93727e-09
4.98238e-08
3.91192e-09
5.09919e-08
2.2119e-09
5.14454e-08
-8.41733e-14
5.05271e-08
-2.18145e-10
4.84327e-08
4.28332e-10
4.5725e-08
3.14925e-09
4.33113e-08
5.91197e-09
4.22104e-08
1.00644e-08
4.25018e-08
1.34778e-08
4.36264e-08
1.68666e-08
4.56079e-08
1.72541e-08
4.72335e-08
1.63599e-08
4.6635e-08
1.43328e-08
4.33238e-08
1.3033e-08
3.92105e-08
1.20194e-08
3.58708e-08
1.10597e-08
3.34676e-08
1.03717e-08
3.24011e-08
8.7809e-09
3.38262e-08
7.94335e-09
4.15567e-08
5.36038e-09
5.31656e-08
4.53377e-08
1.81981e-09
4.36822e-08
2.89022e-09
5.62047e-08
1.46732e-09
5.84537e-08
-1.12155e-09
6.01273e-08
-5.09299e-09
6.11365e-08
-8.14042e-09
6.06627e-08
-1.02561e-08
5.82632e-08
-9.90063e-09
5.43569e-08
-8.58371e-09
5.02955e-08
-5.12421e-09
4.74151e-08
-1.53253e-09
4.60052e-08
3.23857e-09
4.61162e-08
7.78562e-09
4.71691e-08
1.32133e-08
4.86407e-08
1.73309e-08
5.05848e-08
1.94904e-08
5.19388e-08
1.88409e-08
5.05128e-08
1.80368e-08
4.65753e-08
1.7106e-08
4.27395e-08
1.63741e-08
4.00757e-08
1.47964e-08
3.87924e-08
1.32359e-08
4.04913e-08
1.03706e-08
4.75797e-08
7.62055e-09
6.00528e-08
5.42269e-08
5.57458e-10
5.18838e-08
-1.44002e-09
6.70129e-08
-6.42077e-09
7.03909e-08
-1.20289e-08
7.21314e-08
-1.7653e-08
7.21386e-08
-2.10396e-08
6.95941e-08
-2.27467e-08
6.47002e-08
-2.18386e-08
5.91353e-08
-1.98189e-08
5.41354e-08
-1.58605e-08
5.02693e-08
-1.16881e-08
4.83388e-08
-6.32939e-09
4.8426e-08
-1.56344e-09
4.97478e-08
4.09135e-09
5.12177e-08
1.05035e-08
5.2072e-08
1.75303e-08
5.25799e-08
2.23529e-08
5.22952e-08
2.46754e-08
5.02225e-08
2.51846e-08
4.77206e-08
2.41711e-08
4.59871e-08
2.21193e-08
4.58146e-08
1.79363e-08
4.82275e-08
1.42138e-08
5.57659e-08
9.33639e-09
6.84265e-08
6.47857e-08
-2.12812e-09
6.20307e-08
-9.09718e-09
8.11311e-08
-1.82948e-08
8.54823e-08
-2.68264e-08
8.61378e-08
-3.37147e-08
8.36087e-08
-3.73148e-08
7.79007e-08
-3.84175e-08
7.03762e-08
-3.70281e-08
6.29528e-08
-3.45962e-08
5.67713e-08
-3.03873e-08
5.21739e-08
-2.57051e-08
4.94709e-08
-1.98929e-08
4.91766e-08
-1.39857e-08
5.03745e-08
-6.54039e-09
5.13717e-08
2.25232e-09
5.09597e-08
1.28856e-08
4.98139e-08
2.28956e-08
4.9028e-08
2.99872e-08
4.8955e-08
3.27184e-08
4.99232e-08
3.23284e-08
5.10788e-08
2.93318e-08
5.29239e-08
2.47606e-08
5.71647e-08
1.88098e-08
6.51026e-08
1.2077e-08
7.85995e-08
7.81946e-08
-6.85756e-09
7.57205e-08
-2.00297e-08
1.00525e-07
-3.39925e-08
1.04306e-07
-4.5499e-08
1.02227e-07
-5.35567e-08
9.57191e-08
-5.72396e-08
8.58562e-08
-5.80485e-08
7.51011e-08
-5.61473e-08
6.57945e-08
-5.25176e-08
5.80305e-08
-4.73896e-08
5.21498e-08
-4.17806e-08
4.88794e-08
-3.46672e-08
4.79078e-08
-2.62656e-08
4.78575e-08
-1.53129e-08
4.73521e-08
-2.30616e-09
4.5056e-08
1.28332e-08
4.18727e-08
2.70067e-08
4.09454e-08
3.7611e-08
4.36792e-08
4.22903e-08
4.99238e-08
4.18935e-08
5.53681e-08
3.85484e-08
6.0471e-08
3.28069e-08
6.62964e-08
2.50541e-08
7.64024e-08
1.51866e-08
9.22925e-08
9.45941e-08
-1.3451e-08
9.51265e-08
-3.41087e-08
1.25973e-07
-5.32559e-08
1.27619e-07
-6.80228e-08
1.20922e-07
-7.75463e-08
1.08704e-07
-8.1603e-08
9.35631e-08
-8.15817e-08
7.89474e-08
-7.79621e-08
6.65136e-08
-7.23783e-08
5.64726e-08
-6.49196e-08
4.9295e-08
-5.64285e-08
4.49874e-08
-4.58825e-08
4.24616e-08
-3.29712e-08
4.04248e-08
-1.67153e-08
3.74416e-08
1.79261e-09
3.27846e-08
2.06778e-08
2.88337e-08
3.72203e-08
2.93627e-08
4.95226e-08
3.60569e-08
5.52816e-08
4.82445e-08
5.50278e-08
5.94818e-08
5.02265e-08
6.85405e-08
4.26305e-08
7.74509e-08
3.29035e-08
9.01001e-08
1.94963e-08
1.08829e-07
1.157e-07
-2.23693e-08
1.22297e-07
-5.10505e-08
1.58977e-07
-7.62572e-08
1.56261e-07
-9.49383e-08
1.42926e-07
-1.06263e-07
1.2311e-07
-1.10274e-07
1.00946e-07
-1.08617e-07
8.06752e-08
-1.02234e-07
6.40379e-08
-9.28908e-08
5.10266e-08
-8.15897e-08
4.19346e-08
-6.82968e-08
3.57797e-08
-5.1998e-08
3.093e-08
-3.2759e-08
2.63216e-08
-1.0083e-08
2.0493e-08
1.40497e-08
1.3845e-08
3.60116e-08
1.14632e-08
5.37052e-08
1.57893e-08
6.64131e-08
2.72735e-08
7.3059e-08
4.54946e-08
7.23873e-08
6.3345e-08
6.63462e-08
7.81309e-08
5.61805e-08
9.08598e-08
4.25697e-08
1.06487e-07
2.56219e-08
1.30222e-07
1.42822e-07
-3.31288e-08
1.59731e-07
-7.14153e-08
2.00602e-07
-1.03649e-07
1.91546e-07
-1.26996e-07
1.69163e-07
-1.4021e-07
1.3904e-07
-1.43343e-07
1.07081e-07
-1.38185e-07
7.89427e-08
-1.27425e-07
5.6784e-08
-1.13168e-07
3.99533e-08
-9.59406e-08
2.84549e-08
-7.58403e-08
1.9524e-08
-5.20895e-08
1.14478e-08
-2.46787e-08
3.63088e-09
5.16574e-09
-4.59391e-09
3.32315e-08
-1.01551e-08
5.71599e-08
-8.72629e-09
7.58336e-08
5.48322e-10
8.92226e-08
1.74053e-08
9.63755e-08
4.1621e-08
9.60362e-08
6.70826e-08
8.81979e-08
8.87616e-08
7.3889e-08
1.07927e-07
5.60549e-08
1.28234e-07
3.31487e-08
1.5646e-07
1.77631e-07
-4.62899e-08
2.09472e-07
-9.54571e-08
2.52873e-07
-1.36098e-07
2.3468e-07
-1.64603e-07
2.00148e-07
-1.79124e-07
1.55925e-07
-1.79313e-07
1.10146e-07
-1.69183e-07
7.16752e-08
-1.52179e-07
4.28265e-08
-1.30824e-07
2.18405e-08
-1.05942e-07
6.76406e-09
-7.74628e-08
-5.45557e-09
-4.51216e-08
-1.69694e-08
-9.6561e-09
-2.76814e-08
2.59793e-08
-3.65614e-08
5.74808e-08
-3.84023e-08
8.33201e-08
-3.16742e-08
1.03485e-07
-1.67287e-08
1.17881e-07
5.83018e-09
1.25953e-07
3.6546e-08
1.25667e-07
7.00476e-08
1.16053e-07
1.01033e-07
9.72955e-08
1.29207e-07
7.11729e-08
1.56413e-07
4.13712e-08
1.89756e-07
2.20837e-07
-6.16635e-08
2.73845e-07
-1.2362e-07
3.16901e-07
-1.73581e-07
2.86606e-07
-2.07262e-07
2.35526e-07
-2.21692e-07
1.72268e-07
-2.16707e-07
1.07546e-07
-1.99595e-07
5.72847e-08
-1.74353e-07
2.04888e-08
-1.44032e-07
-5.80656e-09
-1.09654e-07
-2.43956e-08
-7.15063e-08
-4.04699e-08
-2.96936e-08
-5.52707e-08
1.34987e-08
-6.78174e-08
5.33718e-08
-7.36841e-08
8.74067e-08
-7.0214e-08
1.15406e-07
-5.75387e-08
1.37366e-07
-3.66837e-08
1.53175e-07
-7.9744e-09
1.62179e-07
2.95297e-08
1.62277e-07
7.17534e-08
1.50989e-07
1.13914e-07
1.27165e-07
1.54096e-07
9.36121e-08
1.9176e-07
5.39026e-08
2.33126e-07
2.75635e-07
-7.9163e-08
3.55641e-07
-1.55292e-07
3.95423e-07
-2.15829e-07
3.48711e-07
-2.54068e-07
2.75615e-07
-2.66187e-07
1.87016e-07
-2.53702e-07
9.72898e-08
-2.27557e-07
3.41269e-08
-1.92277e-07
-1.24706e-08
-1.50818e-07
-4.40634e-08
-1.05826e-07
-6.67673e-08
-5.68652e-08
-8.63679e-08
-5.76951e-09
-1.03662e-07
4.33189e-08
-1.14753e-07
8.68085e-08
-1.15233e-07
1.23787e-07
-1.06025e-07
1.54607e-07
-8.69324e-08
1.78881e-07
-6.01612e-08
1.96663e-07
-2.46257e-08
2.0675e-07
1.99388e-08
2.0746e-07
7.17556e-08
1.94875e-07
1.26797e-07
1.67644e-07
1.81431e-07
1.26206e-07
2.34904e-07
7.11507e-08
2.88966e-07
3.46409e-07
-9.68043e-08
4.55906e-07
-1.87998e-07
4.8947e-07
-2.58755e-07
4.2286e-07
-3.01487e-07
3.22685e-07
-3.11155e-07
1.98726e-07
-2.8809e-07
8.03765e-08
-2.51374e-07
4.24508e-10
-2.03383e-07
-5.58142e-08
-1.50706e-07
-9.37849e-08
-9.36783e-08
-1.19921e-07
-3.40872e-08
-1.42548e-07
2.51953e-08
-1.60308e-07
7.9442e-08
-1.66399e-07
1.26337e-07
-1.61844e-07
1.67637e-07
-1.45633e-07
2.01703e-07
-1.21409e-07
2.29903e-07
-8.75011e-08
2.50293e-07
-4.54832e-08
2.62826e-07
7.19557e-09
2.65113e-07
6.91855e-08
2.53237e-07
1.37771e-07
2.25876e-07
2.0845e-07
1.78356e-07
2.81665e-07
1.11664e-07
3.53683e-07
4.59508e-07
-1.11403e-07
5.72322e-07
-2.15898e-07
5.98627e-07
-2.95541e-07
5.07452e-07
-3.42668e-07
3.72254e-07
-3.46481e-07
2.11967e-07
-3.17762e-07
5.74465e-08
-2.67233e-07
-4.26331e-08
-2.07487e-07
-1.10298e-07
-1.42033e-07
-1.53124e-07
-7.36704e-08
-1.82736e-07
-4.18424e-09
-2.07003e-07
6.14508e-08
-2.22086e-07
1.19739e-07
-2.23154e-07
1.72668e-07
-2.1178e-07
2.17902e-07
-1.91078e-07
2.58162e-07
-1.60011e-07
2.90858e-07
-1.20533e-07
3.16556e-07
-7.07543e-08
3.33488e-07
-9.70228e-09
3.39047e-07
6.35203e-08
3.28299e-07
1.48228e-07
2.97931e-07
2.39512e-07
2.36776e-07
3.40354e-07
1.46628e-07
4.49573e-07
6.05954e-07
-1.20018e-07
6.95358e-07
-2.344e-07
7.16272e-07
-3.21697e-07
5.97078e-07
-3.65531e-07
4.24114e-07
-3.67578e-07
2.18401e-07
-3.31635e-07
3.21359e-08
-2.71751e-07
-9.46711e-08
-2.00948e-07
-1.73653e-07
-1.25203e-07
-2.22037e-07
-4.66725e-08
-2.54705e-07
2.98001e-08
-2.78958e-07
1.00845e-07
-2.88046e-07
1.65514e-07
-2.83777e-07
2.2318e-07
-2.6749e-07
2.75948e-07
-2.40569e-07
3.22009e-07
-2.04646e-07
3.62582e-07
-1.5859e-07
3.95758e-07
-1.0219e-07
4.21487e-07
-3.26967e-08
4.36575e-07
5.08804e-08
4.35487e-07
1.53178e-07
4.11132e-07
2.64894e-07
3.55367e-07
4.05221e-07
2.77858e-07
5.26303e-07
8.8562e-07
-1.20543e-07
8.18168e-07
-2.39327e-07
8.36878e-07
-3.27134e-07
6.88774e-07
-3.73151e-07
4.71387e-07
-3.68006e-07
2.22756e-07
-3.26655e-07
-1.17477e-09
-2.60588e-07
-1.54288e-07
-1.82849e-07
-2.45374e-07
-9.99736e-08
-2.99671e-07
-1.50176e-08
-3.35473e-07
6.83639e-08
-3.56117e-07
1.44298e-07
-3.61465e-07
2.15064e-07
-3.50573e-07
2.8015e-07
-3.28614e-07
3.3958e-07
-2.9698e-07
3.94122e-07
-2.55723e-07
4.43138e-07
-2.04528e-07
4.86747e-07
-1.41975e-07
5.24004e-07
-6.5976e-08
5.53111e-07
2.6919e-08
5.66357e-07
1.44171e-07
5.54287e-07
2.84259e-07
4.87833e-07
4.71744e-07
3.3619e-07
6.82344e-07
1.22124e-06
-9.89776e-08
9.18117e-07
-2.02623e-07
9.41975e-07
-2.85616e-07
7.72445e-07
-3.32629e-07
5.24074e-07
-3.42917e-07
2.36232e-07
-3.16045e-07
-2.17224e-08
-2.61979e-07
-2.03842e-07
-1.93565e-07
-3.10152e-07
-1.16837e-07
-3.73352e-07
-3.52247e-08
-4.13328e-07
4.37095e-08
-4.34611e-07
1.21609e-07
-4.34616e-07
1.96049e-07
-4.22486e-07
2.69005e-07
-3.98992e-07
3.40861e-07
-3.66208e-07
4.12292e-07
-3.24613e-07
4.84166e-07
-2.73709e-07
5.5742e-07
-2.12447e-07
6.33821e-07
-1.3924e-07
7.14848e-07
-5.07727e-08
8.03169e-07
5.91021e-08
8.96018e-07
1.93006e-07
1.0119e-06
3.59068e-07
1.16921e-06
5.23477e-07
8.59982e-07
1.53099e-06
-8.54841e-08
1.00485e-06
-1.801e-07
1.03765e-06
-2.56661e-07
8.5171e-07
-3.06564e-07
5.73929e-07
-3.20354e-07
2.56357e-07
-2.98359e-07
-4.01148e-08
-2.47484e-07
-2.51538e-07
-1.80121e-07
-3.7536e-07
-1.01755e-07
-4.49902e-07
-1.88519e-08
-4.9581e-07
6.51728e-08
-5.14881e-07
1.45802e-07
-5.15665e-07
2.26159e-07
-5.00992e-07
3.05332e-07
-4.76555e-07
3.84249e-07
-4.43611e-07
4.6381e-07
-4.02624e-07
5.45074e-07
-3.53435e-07
6.29573e-07
-2.95296e-07
7.19293e-07
-2.27298e-07
8.18085e-07
-1.47954e-07
9.33748e-07
-5.50402e-08
1.0752e-06
5.31328e-08
1.25479e-06
1.77814e-07
1.49937e-06
2.80843e-07
4.54646e-07
1.9047e-06
-7.12678e-08
1.07713e-06
-1.54541e-07
1.12246e-06
-2.26012e-07
9.23419e-07
-2.74845e-07
6.27013e-07
-2.93871e-07
2.76821e-07
-2.75455e-07
-5.46503e-08
-2.29108e-07
-2.95757e-07
-1.63223e-07
-4.3989e-07
-8.42247e-08
-5.27956e-07
1.58557e-09
-5.80003e-07
8.66202e-08
-6.01708e-07
1.73116e-07
-5.997e-07
2.57986e-07
-5.85432e-07
3.42895e-07
-5.60756e-07
4.28276e-07
-5.28182e-07
5.1503e-07
-4.88547e-07
6.04381e-07
-4.41926e-07
6.97986e-07
-3.88059e-07
7.98036e-07
-3.26536e-07
9.07885e-07
-2.5705e-07
1.03276e-06
-1.79514e-07
1.18139e-06
-9.59763e-08
1.3652e-06
-4.16913e-09
1.57254e-06
7.16011e-08
1.4771e-07
1.88156e-06
-5.9293e-08
1.13812e-06
-1.32378e-07
1.19668e-06
-1.96429e-07
9.89903e-07
-2.47205e-07
6.78306e-07
-2.67303e-07
3.00825e-07
-2.55399e-07
-6.33108e-08
-2.14135e-07
-3.35573e-07
-1.49379e-07
-5.03452e-07
-6.8982e-08
-6.07866e-07
1.83206e-08
-6.68043e-07
1.08872e-07
-6.898e-07
1.98042e-07
-6.90366e-07
2.88216e-07
-6.75003e-07
3.78392e-07
-6.50493e-07
4.69417e-07
-6.18777e-07
5.62208e-07
-5.80889e-07
6.57969e-07
-5.3724e-07
7.58282e-07
-4.87937e-07
8.65195e-07
-4.33073e-07
9.81332e-07
-3.72997e-07
1.11034e-06
-3.0844e-07
1.25665e-06
-2.4183e-07
1.42676e-06
-1.76429e-07
1.6213e-06
-1.20393e-07
-8.26545e-08
1.85111e-06
-5.21389e-08
1.19177e-06
-1.15694e-07
1.26205e-06
-1.74994e-07
1.0503e-06
-2.24541e-07
7.30709e-07
-2.49791e-07
3.28371e-07
-2.45188e-07
-6.49565e-08
-2.06928e-07
-3.72282e-07
-1.4158e-07
-5.67998e-07
-5.84621e-08
-6.90651e-07
3.37615e-08
-7.59172e-07
1.26788e-07
-7.85013e-07
2.22099e-07
-7.84037e-07
3.16573e-07
-7.69657e-07
4.11585e-07
-7.4541e-07
5.07523e-07
-7.14529e-07
6.05256e-07
-6.78406e-07
7.05908e-07
-6.3767e-07
8.10877e-07
-5.92707e-07
9.21888e-07
-5.43928e-07
1.04099e-06
-4.92037e-07
1.17066e-06
-4.38197e-07
1.31278e-06
-3.84752e-07
1.47208e-06
-3.33961e-07
1.64381e-06
-2.94333e-07
-2.6748e-07
1.83011e-06
-4.99288e-08
1.24428e-06
-1.08433e-07
1.32251e-06
-1.65124e-07
1.10942e-06
-2.17172e-07
7.8375e-07
-2.4935e-07
3.64038e-07
-2.51999e-07
-5.97949e-08
-2.12618e-07
-4.09855e-07
-1.42754e-07
-6.37028e-07
-5.36781e-08
-7.79208e-07
4.33569e-08
-8.57039e-07
1.43927e-07
-8.8356e-07
2.43109e-07
-8.84801e-07
3.42887e-07
-8.69207e-07
4.42433e-07
-8.44869e-07
5.42586e-07
-8.14601e-07
6.4422e-07
-7.79952e-07
7.48389e-07
-7.41751e-07
8.56311e-07
-7.0055e-07
9.69359e-07
-6.5694e-07
1.08903e-06
-6.1173e-07
1.21684e-06
-5.6615e-07
1.35452e-06
-5.22012e-07
1.50118e-06
-4.82577e-07
1.6583e-06
-4.49233e-07
-4.29236e-07
1.81903e-06
-5.27545e-08
1.29921e-06
-1.10889e-07
1.38305e-06
-1.71036e-07
1.17079e-06
-2.28411e-07
8.43662e-07
-2.71489e-07
4.09664e-07
-2.78056e-07
-4.9617e-08
-2.33079e-07
-4.52889e-07
-1.54014e-07
-7.14932e-07
-5.59111e-08
-8.76589e-07
5.05157e-08
-9.62313e-07
1.56613e-07
-9.91562e-07
2.63161e-07
-9.89987e-07
3.67585e-07
-9.73897e-07
4.71356e-07
-9.48708e-07
5.75086e-07
-9.18346e-07
6.79713e-07
-8.84579e-07
7.86252e-07
-8.48289e-07
8.95784e-07
-8.10092e-07
1.00944e-06
-7.70611e-07
1.12833e-06
-7.30667e-07
1.25345e-06
-6.91366e-07
1.38501e-06
-6.54271e-07
1.52469e-06
-6.20564e-07
1.66805e-06
-5.94802e-07
-5.75529e-07
1.81545e-06
-5.86457e-08
1.36147e-06
-1.20947e-07
1.44758e-06
-1.87484e-07
1.23957e-06
-2.57919e-07
9.16452e-07
-3.14741e-07
4.69207e-07
-3.21789e-07
-3.79083e-08
-2.67302e-07
-5.05207e-07
-1.73876e-07
-8.06548e-07
-6.27577e-08
-9.86733e-07
5.35226e-08
-1.0789e-06
1.69836e-07
-1.10588e-06
2.81792e-07
-1.10324e-06
3.91609e-07
-1.08353e-06
4.99202e-07
-1.05628e-06
6.05815e-07
-1.02498e-06
7.12542e-07
-9.91345e-07
8.20443e-07
-9.56237e-07
9.30534e-07
-9.20231e-07
1.04377e-06
-8.83911e-07
1.16101e-06
-8.47982e-07
1.28288e-06
-8.13357e-07
1.41019e-06
-7.81094e-07
1.54106e-06
-7.53271e-07
1.67741e-06
-7.29046e-07
-7.13142e-07
1.81386e-06
-6.64193e-08
1.43017e-06
-1.34517e-07
1.51809e-06
-2.10823e-07
1.31844e-06
-2.98063e-07
1.00525e-06
-3.67382e-07
5.42342e-07
-3.7832e-07
-2.16063e-08
-3.11647e-07
-5.68762e-07
-1.99026e-07
-9.1688e-07
-7.16037e-08
-1.11265e-06
5.81512e-08
-1.20694e-06
1.82369e-07
-1.2314e-06
3.02176e-07
-1.2216e-06
4.16298e-07
-1.19777e-06
5.27039e-07
-1.16706e-06
6.35707e-07
-1.1337e-06
7.43633e-07
-1.09934e-06
8.51966e-07
-1.06466e-06
9.61717e-07
-1.03008e-06
1.07378e-06
-9.9605e-07
1.18887e-06
-9.63163e-07
1.30757e-06
-9.32095e-07
1.42959e-06
-9.03791e-07
1.5564e-06
-8.78392e-07
1.68414e-06
-8.59008e-07
-8.4266e-07
1.81464e-06
-7.32941e-08
1.50795e-06
-1.49463e-07
1.59755e-06
-2.4031e-07
1.41143e-06
-3.43062e-07
1.11024e-06
-4.22181e-07
6.2825e-07
-4.38251e-07
-3.39774e-10
-3.59007e-07
-6.43688e-07
-2.23174e-07
-1.04986e-06
-7.6598e-08
-1.25699e-06
6.55705e-08
-1.34857e-06
2.00456e-07
-1.3639e-06
3.25167e-07
-1.34717e-06
4.43311e-07
-1.3155e-06
5.56144e-07
-1.27977e-06
6.65807e-07
-1.24338e-06
7.73909e-07
-1.20752e-06
8.81739e-07
-1.17259e-06
9.90346e-07
-1.13879e-06
1.10058e-06
-1.10641e-06
1.21313e-06
-1.0758e-06
1.32839e-06
-1.0475e-06
1.44706e-06
-1.02197e-06
1.56736e-06
-1.00052e-06
1.69173e-06
-9.81399e-07
-9.68314e-07
1.81616e-06
-7.79108e-08
1.58872e-06
-1.62683e-07
1.68525e-06
-2.64661e-07
1.51598e-06
-3.74866e-07
1.22603e-06
-4.66567e-07
7.2229e-07
-4.87371e-07
3.33093e-08
-3.98658e-07
-7.27012e-07
-2.37509e-07
-1.20741e-06
-7.19601e-08
-1.41994e-06
8.34353e-08
-1.50164e-06
2.24565e-07
-1.50578e-06
3.54622e-07
-1.47536e-06
4.74376e-07
-1.43518e-06
5.8776e-07
-1.39309e-06
6.97065e-07
-1.3527e-06
8.04185e-07
-1.31473e-06
9.10529e-07
-1.27906e-06
1.01719e-06
-1.24559e-06
1.12502e-06
-1.21437e-06
1.2347e-06
-1.18561e-06
1.34671e-06
-1.1596e-06
1.46084e-06
-1.13678e-06
1.57867e-06
-1.11677e-06
1.697e-06
-1.10196e-06
-1.08893e-06
1.81848e-06
-7.49376e-08
1.66876e-06
-1.62648e-07
1.77659e-06
-2.6316e-07
1.61991e-06
-3.72275e-07
1.33589e-06
-4.68306e-07
8.34713e-07
-5.02617e-07
7.69029e-08
-4.14179e-07
-8.09727e-07
-2.29818e-07
-1.38743e-06
-4.84259e-08
-1.59857e-06
1.14956e-07
-1.664e-06
2.61683e-07
-1.64968e-06
3.91653e-07
-1.60609e-06
5.1117e-07
-1.55402e-06
6.22995e-07
-1.50469e-06
7.30272e-07
-1.45997e-06
8.3507e-07
-1.41962e-06
9.38871e-07
-1.38301e-06
1.04278e-06
-1.34966e-06
1.14764e-06
-1.3194e-06
1.25409e-06
-1.29222e-06
1.36255e-06
-1.26825e-06
1.47378e-06
-1.24758e-06
1.58625e-06
-1.23106e-06
1.70274e-06
-1.21661e-06
-1.20748e-06
1.82e-06
-6.04237e-08
1.73186e-06
-1.39254e-07
1.85754e-06
-2.23981e-07
1.70717e-06
-3.1184e-07
1.43533e-06
-4.22152e-07
9.4574e-07
-4.56071e-07
1.36675e-07
-3.81997e-07
-8.76813e-07
-1.85568e-07
-1.57977e-06
2.3928e-09
-1.78405e-06
1.68458e-07
-1.82774e-06
3.11918e-07
-1.79415e-06
4.39748e-07
-1.73174e-06
5.54726e-07
-1.66899e-06
6.62454e-07
-1.61237e-06
7.65796e-07
-1.56336e-06
8.66844e-07
-1.5208e-06
9.67022e-07
-1.48336e-06
1.06737e-06
-1.45021e-06
1.1687e-06
-1.42091e-06
1.27161e-06
-1.39532e-06
1.37663e-06
-1.37338e-06
1.48355e-06
-1.35523e-06
1.59415e-06
-1.34018e-06
1.70558e-06
-1.33029e-06
-1.32205e-06
1.82088e-06
-3.20813e-08
1.76818e-06
-8.67702e-08
1.91629e-06
-1.3924e-07
1.76476e-06
-1.99961e-07
1.49188e-06
-2.81846e-07
1.05713e-06
-3.11001e-07
1.75935e-07
-2.7294e-07
-9.10072e-07
-9.21063e-08
-1.75782e-06
8.8749e-08
-1.96303e-06
2.45109e-07
-1.98405e-06
3.80768e-07
-1.92718e-06
4.97979e-07
-1.85032e-06
6.05361e-07
-1.7758e-06
7.06148e-07
-1.71305e-06
8.03556e-07
-1.66086e-06
8.99405e-07
-1.61682e-06
9.9491e-07
-1.57909e-06
1.09096e-06
-1.54649e-06
1.18824e-06
-1.51842e-06
1.28729e-06
-1.49456e-06
1.38846e-06
-1.4748e-06
1.49252e-06
-1.45894e-06
1.5981e-06
-1.4476e-06
1.70808e-06
-1.43861e-06
-1.43497e-06
1.81967e-06
9.48652e-09
1.76105e-06
-1.04726e-08
1.93807e-06
-2.38026e-08
1.77674e-06
-1.8323e-08
1.50244e-06
-1.95939e-08
1.05055e-06
-4.86882e-08
2.32945e-07
-7.80029e-08
-8.77691e-07
6.06859e-08
-1.89512e-06
2.13657e-07
-2.11538e-06
3.48755e-07
-2.11804e-06
4.63748e-07
-2.04431e-06
5.67206e-07
-1.95191e-06
6.61886e-07
-1.87093e-06
7.53103e-07
-1.8045e-06
8.42784e-07
-1.75077e-06
9.3219e-07
-1.70649e-06
1.02214e-06
-1.66931e-06
1.11327e-06
-1.63789e-06
1.20608e-06
-1.61149e-06
1.301e-06
-1.58974e-06
1.39841e-06
-1.5724e-06
1.49812e-06
-1.55941e-06
1.60181e-06
-1.54998e-06
1.70697e-06
-1.54597e-06
-1.54403e-06
1.81661e-06
5.84707e-08
1.70551e-06
7.91609e-08
1.91892e-06
1.10568e-07
1.75014e-06
1.59397e-07
1.44286e-06
2.23216e-07
1.0051e-06
1.61781e-07
2.87045e-07
1.62181e-07
-8.79022e-07
2.6063e-07
-1.99364e-06
3.71562e-07
-2.22683e-06
4.70905e-07
-2.21897e-06
5.60738e-07
-2.13244e-06
6.41966e-07
-2.0355e-06
7.21892e-07
-1.95089e-06
8.01538e-07
-1.88444e-06
8.82192e-07
-1.83176e-06
9.64259e-07
-1.78889e-06
1.04804e-06
-1.75342e-06
1.13382e-06
-1.72398e-06
1.22188e-06
-1.69986e-06
1.31247e-06
-1.68061e-06
1.40578e-06
-1.66601e-06
1.50245e-06
-1.6558e-06
1.60114e-06
-1.65049e-06
1.70463e-06
-1.64798e-06
-1.65115e-06
1.81042e-06
1.05817e-07
1.60045e-06
1.70679e-07
1.85464e-06
2.30799e-07
1.68607e-06
3.27105e-07
1.35401e-06
3.78331e-07
9.38502e-07
3.7501e-07
2.83458e-07
4.3034e-07
-9.36711e-07
4.84726e-07
-2.04972e-06
5.45117e-07
-2.28884e-06
6.03578e-07
-2.27779e-06
6.59318e-07
-2.19161e-06
7.18872e-07
-2.09414e-06
7.815e-07
-2.01467e-06
8.48819e-07
-1.95248e-06
9.19947e-07
-1.90342e-06
9.94346e-07
-1.86375e-06
1.07173e-06
-1.83121e-06
1.152e-06
-1.80464e-06
1.23521e-06
-1.78339e-06
1.32141e-06
-1.76713e-06
1.41078e-06
-1.75561e-06
1.50295e-06
-1.74878e-06
1.59952e-06
-1.74588e-06
1.69804e-06
-1.74868e-06
-1.7541e-06
1.80144e-06
1.46513e-07
1.45528e-06
2.44975e-07
1.75622e-06
3.33001e-07
1.60019e-06
4.38581e-07
1.23612e-06
5.30792e-07
8.45731e-07
5.96134e-07
2.02728e-07
6.7836e-07
-1.02301e-06
6.96797e-07
-2.07093e-06
7.11504e-07
-2.30565e-06
7.27274e-07
-2.29654e-06
7.53327e-07
-2.21714e-06
7.88955e-07
-2.13297e-06
8.36413e-07
-2.06296e-06
8.9209e-07
-2.00897e-06
9.54135e-07
-1.96614e-06
1.02113e-06
-1.9313e-06
1.09229e-06
-1.90285e-06
1.16718e-06
-1.87996e-06
1.24559e-06
-1.8622e-06
1.32744e-06
-1.84931e-06
1.41262e-06
-1.84117e-06
1.50162e-06
-1.83759e-06
1.59307e-06
-1.83911e-06
1.68951e-06
-1.84384e-06
-1.85456e-06
1.78864e-06
1.78326e-07
1.27684e-06
3.02162e-07
1.63255e-06
4.02157e-07
1.49552e-06
5.17988e-07
1.12302e-06
6.28653e-07
7.20096e-07
7.55166e-07
6.69071e-08
8.60741e-07
-1.13305e-06
8.61851e-07
-2.07525e-06
8.42478e-07
-2.28913e-06
8.27924e-07
-2.2835e-06
8.27715e-07
-2.22113e-06
8.47947e-07
-2.15334e-06
8.82623e-07
-2.09938e-06
9.28733e-07
-2.05626e-06
9.82955e-07
-2.02122e-06
1.04339e-06
-1.99241e-06
1.10888e-06
-1.96891e-06
1.17877e-06
-1.95034e-06
1.25265e-06
-1.9365e-06
1.33027e-06
-1.92733e-06
1.41157e-06
-1.92278e-06
1.49606e-06
-1.92291e-06
1.58508e-06
-1.92714e-06
1.67635e-06
-1.9372e-06
-1.95039e-06
1.77249e-06
1.96904e-07
1.0814e-06
3.37134e-07
1.49192e-06
4.51482e-07
1.38246e-06
5.63844e-07
1.00107e-06
6.93588e-07
5.86421e-07
8.4917e-07
-9.72975e-08
9.7236e-07
-1.26088e-06
9.65384e-07
-2.07152e-06
9.23712e-07
-2.25042e-06
8.91214e-07
-2.25455e-06
8.80543e-07
-2.21085e-06
8.90206e-07
-2.16654e-06
9.17622e-07
-2.12824e-06
9.56955e-07
-2.09682e-06
1.00519e-06
-2.0704e-06
1.06026e-06
-2.04824e-06
1.12091e-06
-2.0302e-06
1.18635e-06
-2.01631e-06
1.25603e-06
-2.00667e-06
1.32966e-06
-2.00137e-06
1.40696e-06
-2.00051e-06
1.48822e-06
-2.00409e-06
1.57209e-06
-2.01273e-06
1.6608e-06
-2.02484e-06
-2.04313e-06
1.75224e-06
1.92829e-07
8.87658e-07
3.36583e-07
1.34811e-06
4.50403e-07
1.26538e-06
5.64369e-07
8.87921e-07
6.68482e-07
4.71686e-07
8.57543e-07
-2.92783e-07
1.00382e-06
-1.41109e-06
9.97515e-07
-2.06853e-06
9.55282e-07
-2.21135e-06
9.21326e-07
-2.22253e-06
9.07888e-07
-2.20166e-06
9.16716e-07
-2.17622e-06
9.40514e-07
-2.15407e-06
9.7602e-07
-2.13378e-06
1.02023e-06
-2.11569e-06
1.07132e-06
-2.10017e-06
1.12807e-06
-2.08764e-06
1.18968e-06
-2.07851e-06
1.25561e-06
-2.07311e-06
1.32549e-06
-2.07173e-06
1.39915e-06
-2.07452e-06
1.476e-06
-2.08179e-06
1.55721e-06
-2.0931e-06
1.64058e-06
-2.11022e-06
-2.13085e-06
1.72847e-06
1.56729e-07
7.33926e-07
2.79773e-07
1.22534e-06
3.79265e-07
1.16735e-06
4.65226e-07
7.94059e-07
5.38775e-07
3.9429e-07
8.13193e-07
-5.7252e-07
9.91647e-07
-1.59303e-06
9.86226e-07
-2.06644e-06
9.48071e-07
-2.17604e-06
9.21284e-07
-2.19919e-06
9.16303e-07
-2.1975e-06
9.27339e-07
-2.19063e-06
9.51909e-07
-2.18032e-06
9.8616e-07
-2.16946e-06
1.02821e-06
-2.15886e-06
1.0766e-06
-2.14946e-06
1.13035e-06
-2.14213e-06
1.18876e-06
-2.13755e-06
1.25134e-06
-2.13625e-06
1.31775e-06
-2.1386e-06
1.38768e-06
-2.14496e-06
1.46134e-06
-2.15544e-06
1.5374e-06
-2.17082e-06
1.61783e-06
-2.18981e-06
-2.21498e-06
1.70069e-06
9.14564e-08
6.40623e-07
1.70128e-07
1.14734e-06
2.23726e-07
1.11093e-06
2.28637e-07
7.8949e-07
3.57875e-07
2.5393e-07
7.30967e-07
-9.49247e-07
9.05501e-07
-1.77069e-06
9.16857e-07
-2.08073e-06
9.04579e-07
-2.16654e-06
9.00052e-07
-2.1965e-06
9.07156e-07
-2.20835e-06
9.26202e-07
-2.21072e-06
9.53553e-07
-2.20966e-06
9.88528e-07
-2.20593e-06
1.02982e-06
-2.20131e-06
1.07655e-06
-2.19712e-06
1.12803e-06
-2.19438e-06
1.18375e-06
-2.19394e-06
1.24335e-06
-2.19641e-06
1.3065e-06
-2.2023e-06
1.37305e-06
-2.21193e-06
1.44245e-06
-2.2257e-06
1.51565e-06
-2.24341e-06
1.5907e-06
-2.26673e-06
-2.29384e-06
1.66957e-06
2.00694e-08
6.25405e-07
4.53978e-08
1.12202e-06
3.19217e-08
1.1247e-06
-7.58989e-08
8.90753e-07
2.55656e-07
-8.13716e-08
6.53378e-07
-1.35016e-06
7.99917e-07
-1.92013e-06
8.33594e-07
-2.11683e-06
8.50767e-07
-2.18607e-06
8.67897e-07
-2.21644e-06
8.90088e-07
-2.23127e-06
9.16237e-07
-2.23978e-06
9.48045e-07
-2.24304e-06
9.84734e-07
-2.24401e-06
1.02614e-06
-2.24386e-06
1.07186e-06
-2.24378e-06
1.12158e-06
-2.2449e-06
1.175e-06
-2.24805e-06
1.23185e-06
-2.25389e-06
1.29194e-06
-2.26291e-06
1.355e-06
-2.27554e-06
1.42123e-06
-2.29202e-06
1.4894e-06
-2.31313e-06
1.56116e-06
-2.33792e-06
-2.36872e-06
1.63483e-06
-4.08906e-08
6.61634e-07
-5.4973e-08
1.13498e-06
-1.36054e-07
1.20586e-06
-1.72701e-07
9.27501e-07
2.73745e-07
-5.32543e-07
5.73718e-07
-1.65175e-06
6.96793e-07
-2.04527e-06
7.57523e-07
-2.17962e-06
7.99758e-07
-2.23041e-06
8.35483e-07
-2.25349e-06
8.68181e-07
-2.26703e-06
9.02314e-07
-2.27476e-06
9.37973e-07
-2.28046e-06
9.76598e-07
-2.28403e-06
1.01836e-06
-2.28674e-06
1.06336e-06
-2.28973e-06
1.11157e-06
-2.29391e-06
1.16288e-06
-2.30007e-06
1.21717e-06
-2.3088e-06
1.27428e-06
-2.32061e-06
1.33412e-06
-2.33584e-06
1.39619e-06
-2.35495e-06
1.46132e-06
-2.37785e-06
1.52779e-06
-2.40608e-06
-2.43828e-06
1.59717e-06
-8.62775e-08
7.5157e-07
-1.44641e-07
1.1957e-06
-2.62306e-07
1.32328e-06
-1.80064e-07
8.43479e-07
2.39967e-07
-9.51756e-07
4.87653e-07
-1.90211e-06
6.17206e-07
-2.17661e-06
6.99563e-07
-2.26395e-06
7.59164e-07
-2.29165e-06
8.06154e-07
-2.30268e-06
8.48008e-07
-2.30931e-06
8.86679e-07
-2.31588e-06
9.25677e-07
-2.32078e-06
9.65698e-07
-2.3253e-06
1.00764e-06
-2.32976e-06
1.05187e-06
-2.33489e-06
1.09858e-06
-2.34144e-06
1.14784e-06
-2.35005e-06
1.1996e-06
-2.36122e-06
1.2538e-06
-2.37536e-06
1.31023e-06
-2.39287e-06
1.36911e-06
-2.414e-06
1.42936e-06
-2.4395e-06
1.49227e-06
-2.46872e-06
-2.50362e-06
1.5565e-06
-9.99901e-08
8.48942e-07
-1.69191e-07
1.26316e-06
-2.26589e-07
1.38217e-06
-8.35278e-08
6.99391e-07
2.38866e-07
-1.27754e-06
4.47428e-07
-2.11152e-06
5.76541e-07
-2.30725e-06
6.65937e-07
-2.35497e-06
7.32055e-07
-2.35939e-06
7.85148e-07
-2.35677e-06
8.30213e-07
-2.35695e-06
8.72441e-07
-2.3587e-06
9.12773e-07
-2.36265e-06
9.53326e-07
-2.36711e-06
9.94894e-07
-2.37239e-06
1.03807e-06
-2.37898e-06
1.08315e-06
-2.38733e-06
1.13028e-06
-2.39791e-06
1.1795e-06
-2.41108e-06
1.23074e-06
-2.42722e-06
1.28398e-06
-2.44659e-06
1.33878e-06
-2.46964e-06
1.39579e-06
-2.49636e-06
1.45365e-06
-2.52801e-06
-2.56375e-06
1.51342e-06
-7.10514e-08
9.2161e-07
-1.10117e-07
1.30355e-06
-7.97035e-08
1.34767e-06
7.42467e-08
5.38685e-07
2.95026e-07
-1.49808e-06
4.5948e-07
-2.27792e-06
5.72802e-07
-2.42262e-06
6.55838e-07
-2.43965e-06
7.19751e-07
-2.42492e-06
7.71917e-07
-2.41094e-06
8.18188e-07
-2.40354e-06
8.59907e-07
-2.40266e-06
9.00338e-07
-2.40425e-06
9.40276e-07
-2.4082e-06
9.80812e-07
-2.41395e-06
1.0225e-06
-2.42157e-06
1.06569e-06
-2.43133e-06
1.11055e-06
-2.44349e-06
1.15712e-06
-2.45832e-06
1.20539e-06
-2.47606e-06
1.2552e-06
-2.49703e-06
1.30674e-06
-2.52143e-06
1.35912e-06
-2.54992e-06
1.41319e-06
-2.58214e-06
-2.61953e-06
1.46801e-06
-1.42911e-08
9.31717e-07
-1.9623e-08
1.30534e-06
6.51608e-08