/*--------------------------------*- C++ -*----------------------------------*\
  =========                 |
  \\      /  F ield         | OpenFOAM: The Open Source CFD Toolbox
   \\    /   O peration     | Website:  https://openfoam.org
    \\  /    A nd           | Version:  13
     \\/     M anipulation  |
\*---------------------------------------------------------------------------*/
FoamFile
{
    format      ascii;
    class       volVectorField;
    location    "3";
    object      U;
}
// * * * * * * * * * * * * * * * * * * * * * * * * * * * * * * * * * * * * * //

dimensions      [0 1 -1 0 0 0 0];

internalField   nonuniform List<vector> 
6440
(
(-5.84604e-07 1.15743e-06 0)
(-1.37552e-06 2.11148e-06 0)
(-2.64249e-06 2.05228e-06 -4.26314e-20)
(-3.18222e-06 2.01767e-06 4.24844e-20)
(-3.31989e-06 2.1532e-06 0)
(-2.95745e-06 2.31859e-06 -8.41195e-20)
(-2.08202e-06 2.44345e-06 8.35502e-20)
(-6.82947e-07 2.46713e-06 0)
(1.2258e-06 2.33167e-06 1.64098e-19)
(3.61181e-06 1.99172e-06 -1.62477e-19)
(6.43023e-06 1.39895e-06 -1.60276e-19)
(9.52553e-06 5.33424e-07 3.23008e-22)
(1.26856e-05 -5.72739e-07 3.88825e-22)
(1.57088e-05 -1.87317e-06 1.53545e-19)
(1.84049e-05 -3.29999e-06 1.50399e-19)
(2.06033e-05 -4.78111e-06 -1.48109e-19)
(2.21577e-05 -6.22948e-06 0)
(2.29835e-05 -7.57105e-06 2.83545e-19)
(2.30495e-05 -8.69724e-06 -9.9498e-22)
(2.24046e-05 -9.47467e-06 -2.72628e-19)
(2.10756e-05 -9.67602e-06 2.6576e-19)
(1.89037e-05 -8.7959e-06 -5.20532e-19)
(1.79858e-05 -7.3577e-06 2.54751e-19)
(1.37148e-05 -1.90198e-06 -2.48244e-19)
(4.2106e-06 3.82746e-06 2.12435e-22)
(-6.04997e-07 2.94642e-06 0)
(-1.28821e-06 4.89438e-06 0)
(-2.16907e-06 4.07666e-06 -4.60021e-20)
(-2.32128e-06 3.24447e-06 4.58424e-20)
(-2.22914e-06 2.80557e-06 0)
(-1.73402e-06 2.48875e-06 -9.0846e-20)
(-8.86657e-07 2.1945e-06 9.02263e-20)
(2.62696e-07 1.88586e-06 0)
(1.70233e-06 1.53685e-06 0)
(3.4252e-06 1.13049e-06 0)
(5.38066e-06 6.59684e-07 0)
(7.48521e-06 1.07132e-07 -1.71307e-19)
(9.63197e-06 -5.07909e-07 1.69114e-19)
(1.17044e-05 -1.15797e-06 0)
(1.35853e-05 -1.80048e-06 1.63228e-19)
(1.51634e-05 -2.39835e-06 -1.6073e-19)
(1.62997e-05 -2.89273e-06 0)
(1.69135e-05 -3.28567e-06 0)
(1.70002e-05 -3.55381e-06 3.006e-19)
(1.65072e-05 -3.6317e-06 -2.95166e-19)
(1.53574e-05 -3.45336e-06 2.8673e-19)
(1.3166e-05 -2.46664e-06 -2.81219e-19)
(1.34123e-05 -2.20142e-06 -2.72862e-19)
(1.30499e-05 5.49019e-07 1.21454e-21)
(2.03287e-06 8.61588e-06 1.89676e-19)
(-7.66625e-07 4.79857e-06 0)
(-1.63447e-06 6.70115e-06 0)
(-2.26476e-06 4.54809e-06 -4.68022e-20)
(-1.90807e-06 2.72285e-06 4.66469e-20)
(-1.2772e-06 1.62426e-06 0)
(-2.58164e-07 8.47925e-07 -9.25842e-20)
(1.07989e-06 2.79102e-07 1.84039e-19)
(2.73716e-06 -1.24452e-07 -9.13637e-20)
(4.71572e-06 -3.92407e-07 1.81416e-19)
(7.01961e-06 -5.88568e-07 -1.79688e-19)
(9.59672e-06 -7.74897e-07 -1.77858e-19)
(1.23554e-05 -9.6052e-07 9.39544e-23)
(1.52087e-05 -1.13303e-06 1.7359e-19)
(1.80529e-05 -1.32221e-06 1.70823e-19)
(2.0765e-05 -1.55395e-06 -4.22808e-22)
(2.32051e-05 -1.84377e-06 -1.65562e-19)
(2.51596e-05 -2.1872e-06 0)
(2.65695e-05 -2.68652e-06 3.16918e-19)
(2.7451e-05 -3.4627e-06 -3.11612e-19)
(2.74461e-05 -4.41103e-06 0)
(2.61546e-05 -5.50651e-06 2.95309e-19)
(2.27146e-05 -6.26762e-06 -5.77742e-19)
(1.98691e-05 -8.46278e-06 2.82423e-19)
(1.68651e-05 -9.85265e-06 -2.73544e-19)
(1.23513e-06 1.61632e-06 1.96998e-19)
(-9.80451e-07 7.08455e-06 0)
(-2.02837e-06 7.97934e-06 0)
(-2.35805e-06 3.87723e-06 -4.73683e-20)
(-1.4225e-06 8.27507e-07 4.72177e-20)
(-5.90717e-08 -1.02252e-06 0)
(1.85482e-06 -2.24172e-06 -9.38572e-20)
(4.17684e-06 -2.9282e-06 1.86668e-19)
(6.83503e-06 -3.09502e-06 -9.27227e-20)
(9.75268e-06 -2.75845e-06 0)
(1.28596e-05 -1.97734e-06 0)
(1.62039e-05 -9.03479e-07 0)
(1.98704e-05 2.96258e-07 -1.79215e-19)
(2.3726e-05 1.57111e-06 1.77119e-19)
(2.75621e-05 2.81136e-06 1.7458e-19)
(3.1258e-05 3.85494e-06 -1.72259e-19)
(3.46532e-05 4.56025e-06 0)
(3.74628e-05 4.81214e-06 3.31569e-19)
(3.95304e-05 4.42789e-06 -3.26458e-19)
(4.08638e-05 3.16067e-06 0)
(4.09601e-05 1.07731e-06 0)
(3.91544e-05 -1.64395e-06 0)
(3.42919e-05 -4.56868e-06 0)
(2.82642e-05 -9.3157e-06 0)
(2.27361e-05 -1.49497e-05 -2.80237e-19)
(1.96727e-06 -2.18886e-06 6.08533e-22)
(-1.12754e-06 9.7131e-06 0)
(-2.24178e-06 8.66681e-06 0)
(-2.10154e-06 2.0342e-06 -4.77125e-20)
(-4.50528e-07 -2.52942e-06 4.75671e-20)
(1.80189e-06 -5.27881e-06 0)
(4.74537e-06 -6.98078e-06 -9.46855e-20)
(8.17133e-06 -7.74709e-06 1.88411e-19)
(1.19566e-05 -7.57033e-06 -9.36401e-20)
(1.59919e-05 -6.45588e-06 0)
(2.01665e-05 -4.45713e-06 0)
(2.44405e-05 -1.72294e-06 0)
(2.89541e-05 1.43222e-06 -1.81812e-19)
(3.36438e-05 4.7533e-06 1.79783e-19)
(3.82494e-05 8.01565e-06 1.7749e-19)
(4.26419e-05 1.09155e-05 -1.75231e-19)
(4.66171e-05 1.31562e-05 0)
(4.98247e-05 1.44514e-05 3.3799e-19)
(5.21327e-05 1.45097e-05 -3.33001e-19)
(5.35491e-05 1.3e-05 0)
(5.35897e-05 9.9356e-06 0)
(5.13174e-05 5.7459e-06 0)
(4.52828e-05 9.0448e-07 0)
(3.68641e-05 -6.11566e-06 0)
(2.93903e-05 -1.57155e-05 -2.86116e-19)
(3.45671e-06 -3.73914e-06 2.10372e-19)
(-1.19518e-06 1.24002e-05 0)
(-2.27803e-06 8.51386e-06 0)
(-1.56783e-06 -1.13484e-06 -4.78525e-20)
(8.42392e-07 -7.50041e-06 4.77125e-20)
(4.05863e-06 -1.13531e-05 0)
(8.09985e-06 -1.36246e-05 -9.5104e-20)
(1.2695e-05 -1.44288e-05 1.89336e-19)
(1.76633e-05 -1.37452e-05 -9.41499e-20)
(2.28435e-05 -1.15857e-05 1.87758e-19)
(2.80814e-05 -8.04629e-06 -1.86203e-19)
(3.32852e-05 -3.33829e-06 0)
(3.85553e-05 2.14457e-06 -1.83624e-19)
(4.38686e-05 7.93879e-06 -1.04037e-22)
(4.90066e-05 1.36524e-05 3.59358e-19)
(5.38104e-05 1.8821e-05 -1.77467e-19)
(5.7961e-05 2.30127e-05 0)
(6.11776e-05 2.57338e-05 3.43119e-19)
(6.34182e-05 2.65714e-05 -1.63073e-21)
(6.47252e-05 2.50607e-05 -2.00103e-21)
(6.47842e-05 2.11059e-05 -3.24636e-19)
(6.23018e-05 1.54097e-05 0)
(5.54676e-05 8.62972e-06 0)
(4.52233e-05 -6.10633e-07 0)
(3.60264e-05 -1.39495e-05 -2.91176e-19)
(5.1468e-06 -3.8928e-06 2.16294e-19)
(-1.20764e-06 1.49367e-05 0)
(-2.21717e-06 7.39758e-06 0)
(-9.1662e-07 -5.62185e-06 -4.78083e-20)
(2.22416e-06 -1.40045e-05 4.76737e-20)
(6.36116e-06 -1.91077e-05 9.53566e-20)
(1.14463e-05 -2.19889e-05 -1.90069e-19)
(1.71501e-05 -2.27617e-05 1.89518e-19)
(2.32379e-05 -2.14027e-05 -9.42896e-20)
(2.9494e-05 -1.79481e-05 0)
(3.57138e-05 -1.25505e-05 1.87308e-19)
(4.17488e-05 -5.51355e-06 -1.85686e-19)
(4.76295e-05 2.66374e-06 -1.84725e-19)
(5.33726e-05 1.1361e-05 1.82855e-19)
(5.88096e-05 1.99516e-05 1.81146e-19)
(6.37447e-05 2.77748e-05 -1.79036e-19)
(6.78106e-05 3.42193e-05 0)
(7.08302e-05 3.86256e-05 3.47096e-19)
(7.28588e-05 4.04127e-05 -3.42403e-19)
(7.39871e-05 3.90155e-05 0)
(7.41574e-05 3.4132e-05 3.26802e-19)
(7.17404e-05 2.67246e-05 -3.21843e-19)
(6.44816e-05 1.77688e-05 0)
(5.28773e-05 6.18457e-06 0)
(4.22412e-05 -1.07676e-05 -2.95425e-19)
(6.77984e-06 -3.12949e-06 8.96929e-22)
(-1.1885e-06 1.72171e-05 0)
(-2.12768e-06 5.37358e-06 0)
(-3.11476e-07 -1.12079e-05 -4.76e-20)
(3.4267e-06 -2.1742e-05 4.7471e-20)
(8.31546e-06 -2.81711e-05 0)
(1.4255e-05 -3.1643e-05 -9.48644e-20)
(2.08732e-05 -3.22714e-05 9.43703e-20)
(2.78918e-05 -3.00459e-05 0)
(3.50459e-05 -2.50461e-05 0)
(4.20754e-05 -1.74995e-05 0)
(4.87812e-05 -7.82385e-06 0)
(5.51818e-05 3.34271e-06 -1.85181e-19)
(6.12466e-05 1.52739e-05 1.83397e-19)
(6.67775e-05 2.70886e-05 0)
(7.15846e-05 3.78981e-05 0)
(7.53314e-05 4.67892e-05 0)
(7.80024e-05 5.29993e-05 0)
(7.97603e-05 5.57515e-05 0)
(8.07411e-05 5.43892e-05 3.37567e-19)
(8.11623e-05 4.84021e-05 -3.32834e-19)
(7.91177e-05 3.89693e-05 0)
(7.18808e-05 2.75078e-05 0)
(5.94076e-05 1.34028e-05 0)
(4.77122e-05 -7.07265e-06 -2.98906e-19)
(8.17192e-06 -2.00941e-06 2.26513e-19)
(-1.15073e-06 1.92047e-05 0)
(-2.05911e-06 2.62341e-06 0)
(1.01001e-07 -1.75517e-05 -4.72479e-20)
(4.18845e-06 -3.0264e-05 4.71245e-20)
(9.53771e-06 -3.80049e-05 0)
(1.60108e-05 -4.19795e-05 -9.42821e-20)
(2.32175e-05 -4.23084e-05 1.87957e-19)
(3.08557e-05 -3.90153e-05 -9.36052e-20)
(3.86297e-05 -3.22468e-05 0)
(4.62357e-05 -2.23278e-05 0)
(5.34367e-05 -9.80435e-06 1.86023e-19)
(6.02714e-05 4.52409e-06 -3.69489e-19)
(6.65977e-05 1.97986e-05 1.83351e-19)
(7.21162e-05 3.49462e-05 1.82335e-19)
(7.65374e-05 4.8887e-05 -1.80391e-19)
(7.97645e-05 6.03329e-05 0)
(8.2058e-05 6.83412e-05 -3.51986e-19)
(8.354e-05 7.20047e-05 3.47627e-19)
(8.44314e-05 7.05147e-05 0)
(8.52413e-05 6.32227e-05 0)
(8.39109e-05 5.14213e-05 0)
(7.72408e-05 3.71131e-05 3.17742e-19)
(6.4469e-05 2.03165e-05 -3.1303e-19)
(5.22072e-05 -3.56658e-06 -3.01698e-19)
(9.20378e-06 -9.70325e-07 2.3085e-19)
(-1.10247e-06 2.09099e-05 0)
(-2.05493e-06 -5.83032e-07 0)
(2.04246e-07 -2.42195e-05 0)
(4.30335e-06 -3.90155e-05 0)
(9.71483e-06 -4.79562e-05 0)
(1.62863e-05 -5.2277e-05 0)
(2.3639e-05 -5.21181e-05 0)
(3.14765e-05 -4.75604e-05 0)
(3.94992e-05 -3.88446e-05 -1.86158e-19)
(4.73857e-05 -2.64209e-05 1.84894e-19)
(5.4887e-05 -1.09678e-05 0)
(6.20494e-05 6.5384e-06 0)
(6.85935e-05 2.50003e-05 0)
(7.40739e-05 4.32744e-05 0)
(7.80871e-05 6.01355e-05 0)
(8.07848e-05 7.41114e-05 0)
(8.26988e-05 8.38608e-05 0)
(8.38785e-05 8.83557e-05 -3.47945e-19)
(8.4718e-05 8.65941e-05 3.43642e-19)
(8.6028e-05 7.78869e-05 0)
(8.5734e-05 6.34711e-05 -3.28061e-19)
(8.02346e-05 4.60333e-05 3.23546e-19)
(6.78202e-05 2.64208e-05 0)
(5.56046e-05 -7.2912e-07 0)
(9.82217e-06 -3.14328e-07 0)
(-1.0459e-06 2.23719e-05 0)
(-2.14016e-06 -3.92488e-06 0)
(-7.46247e-08 -3.07195e-05 0)
(3.64037e-06 -4.73855e-05 0)
(8.6462e-06 -5.7324e-05 0)
(1.48055e-05 -6.17793e-05 0)
(2.17853e-05 -6.09257e-05 9.23429e-20)
(2.93291e-05 -5.49276e-05 -9.18651e-20)
(3.71671e-05 -4.41516e-05 -1.84401e-19)
(4.5017e-05 -2.92147e-05 1.83213e-19)
(5.26352e-05 -1.09645e-05 1.83737e-19)
(5.99292e-05 9.49719e-06 -1.82333e-19)
(6.65811e-05 3.08611e-05 0)
(7.21116e-05 5.18847e-05 1.81413e-19)
(7.60137e-05 7.11781e-05 4.81897e-22)
(7.84633e-05 8.72973e-05 -1.78266e-19)
(8.00408e-05 9.86015e-05 0)
(8.08753e-05 0.000103821 -3.48655e-19)
(8.17109e-05 0.000101831 3.44524e-19)
(8.35481e-05 9.17658e-05 0)
(8.44836e-05 7.46986e-05 0)
(8.07176e-05 5.39743e-05 3.21908e-19)
(6.93203e-05 3.14997e-05 -3.17533e-19)
(5.7816e-05 1.22622e-06 0)
(9.99425e-06 -2.24802e-07 0)
(-9.78053e-07 2.36391e-05 0)
(-2.31783e-06 -7.0771e-06 0)
(-7.5226e-07 -3.65663e-05 0)
(2.16638e-06 -5.47801e-05 0)
(6.2802e-06 -6.54415e-05 0)
(1.14973e-05 -6.97834e-05 0)
(1.75615e-05 -6.80251e-05 0)
(2.42871e-05 -6.04369e-05 0)
(3.14671e-05 -4.75405e-05 0)
(3.88753e-05 -3.01499e-05 0)
(4.63278e-05 -9.34139e-06 -1.8189e-19)
(5.37e-05 1.36408e-05 1.80571e-19)
(6.06053e-05 3.73913e-05 0)
(6.63685e-05 6.0587e-05 0)
(7.04745e-05 8.16028e-05 0)
(7.30775e-05 9.91286e-05 0)
(7.45333e-05 0.000111492 0)
(7.52275e-05 0.000117339 0)
(7.61216e-05 0.000115373 0)
(7.8225e-05 0.000104378 0)
(8.03665e-05 8.49604e-05 0)
(7.8726e-05 6.09667e-05 -3.23293e-19)
(6.89081e-05 3.56012e-05 3.19088e-19)
(5.87844e-05 2.26422e-06 0)
(9.70921e-06 -8.77921e-07 0)
(-8.92038e-07 2.47565e-05 0)
(-2.56944e-06 -9.74536e-06 0)
(-1.78599e-06 -4.13333e-05 0)
(-4.41738e-08 -6.06906e-05 0)
(2.73269e-06 -7.17543e-05 8.96332e-20)
(6.52718e-06 -7.57282e-05 -8.93205e-20)
(1.11844e-05 -7.28777e-05 0)
(1.66155e-05 -6.359e-05 0)
(2.26985e-05 -4.85585e-05 -1.79636e-19)
(2.92854e-05 -2.88216e-05 3.58258e-19)
(3.63234e-05 -5.72615e-06 1.09583e-21)
(4.3711e-05 1.93207e-05 -1.78384e-19)
(5.09768e-05 4.46837e-05 0)
(5.71304e-05 6.90078e-05 0)
(6.1785e-05 9.07766e-05 1.77871e-19)
(6.50702e-05 0.000108769 -1.76187e-19)
(6.70944e-05 0.000121544 -3.51119e-19)
(6.82442e-05 0.000127812 -3.02972e-22)
(6.91814e-05 0.000126135 3.43961e-19)
(7.10628e-05 0.000114972 3.38247e-19)
(7.39517e-05 9.40211e-05 -3.34275e-19)
(7.43728e-05 6.71074e-05 3.24304e-19)
(6.65239e-05 3.89716e-05 -3.20267e-19)
(5.84664e-05 2.4952e-06 0)
(9.032e-06 -2.49402e-06 0)
(-7.82544e-07 2.57549e-05 0)
(-2.86474e-06 -1.16878e-05 0)
(-3.08609e-06 -4.47047e-05 0)
(-2.8177e-06 -6.47516e-05 0)
(-1.72172e-06 -7.58873e-05 0)
(2.825e-07 -7.92643e-05 0)
(3.16598e-06 -7.51875e-05 0)
(6.95102e-06 -6.4154e-05 0)
(1.1608e-05 -4.70264e-05 -1.76715e-19)
(1.70647e-05 -2.50692e-05 1.75745e-19)
(2.34568e-05 5.41557e-08 0)
(3.06426e-05 2.67136e-05 0)
(3.80215e-05 5.29762e-05 0)
(4.4802e-05 7.73392e-05 0)
(5.07037e-05 9.89214e-05 0)
(5.55955e-05 0.000116319 0)
(5.91489e-05 0.000128546 0)
(6.12542e-05 0.000134554 -3.46114e-19)
(6.22558e-05 0.000133195 3.42492e-19)
(6.34204e-05 0.000122881 0)
(6.6142e-05 0.000102164 0)
(6.81617e-05 7.35081e-05 0)
(6.2534e-05 4.30011e-05 0)
(5.70836e-05 2.78257e-06 0)
(8.05134e-06 -5.23664e-06 0)
(-6.45946e-07 2.66427e-05 0)
(-3.18254e-06 -1.27456e-05 0)
(-4.54425e-06 -4.64793e-05 0)
(-5.89737e-06 -6.67681e-05 0)
(-6.67922e-06 -7.76753e-05 0)
(-6.66492e-06 -8.0292e-05 0)
(-5.73583e-06 -7.49402e-05 0)
(-3.74873e-06 -6.22093e-05 0)
(-6.473e-07 -4.31116e-05 0)
(3.53635e-06 -1.91011e-05 0)
(9.07333e-06 7.83297e-06 1.73903e-19)
(1.57399e-05 3.58074e-05 -1.72818e-19)
(2.29821e-05 6.27951e-05 0)
(3.08341e-05 8.687e-05 0)
(3.86929e-05 0.000107293 1.73775e-19)
(4.56718e-05 0.000122955 -1.72262e-19)
(5.12911e-05 0.000133198 -3.45486e-19)
(5.50527e-05 0.000137661 3.42167e-19)
(5.69028e-05 0.000136 0)
(5.76762e-05 0.000127159 0)
(5.93726e-05 0.00010899 0)
(6.17124e-05 8.11854e-05 3.2543e-19)
(5.747e-05 4.92571e-05 -6.39296e-19)
(5.44027e-05 4.18916e-06 3.13848e-19)
(6.65128e-06 -9.7226e-06 0)
(-4.81356e-07 2.74052e-05 0)
(-3.47768e-06 -1.28574e-05 0)
(-6.0251e-06 -4.65575e-05 0)
(-8.99608e-06 -6.66771e-05 0)
(-1.16635e-05 -7.71467e-05 0)
(-1.36351e-05 -7.89303e-05 0)
(-1.46142e-05 -7.23545e-05 -8.47983e-20)
(-1.43431e-05 -5.80964e-05 8.44612e-20)
(-1.26859e-05 -3.73002e-05 -1.70014e-19)
(-9.71992e-06 -1.15175e-05 1.69172e-19)
(-5.08938e-06 1.71658e-05 -1.705e-19)
(1.18443e-06 4.64282e-05 1.69483e-19)
(8.56995e-06 7.42674e-05 0)
(1.72661e-05 9.84025e-05 -1.70975e-19)
(2.66929e-05 0.000117113 1.69621e-19)
(3.57682e-05 0.000130222 0)
(4.39489e-05 0.000137343 0)
(5.0451e-05 0.000138794 -3.40081e-19)
(5.45415e-05 0.000135345 -1.49073e-21)
(5.60993e-05 0.000127227 3.34877e-19)
(5.65402e-05 0.000112937 0)
(5.70669e-05 8.96712e-05 -3.25641e-19)
(5.19552e-05 5.86366e-05 3.22046e-19)
(5.0358e-05 6.86646e-06 0)
(4.82182e-06 -1.76185e-05 -2.50751e-19)
(-2.90551e-07 2.79691e-05 0)
(-3.66768e-06 -1.2111e-05 0)
(-7.33584e-06 -4.50648e-05 0)
(-1.18228e-05 -6.46581e-05 0)
(-1.61965e-05 -7.45563e-05 0)
(-1.98952e-05 -7.55616e-05 0)
(-2.2505e-05 -6.79943e-05 0)
(-2.36711e-05 -5.25598e-05 0)
(-2.31315e-05 -3.04697e-05 0)
(-2.08327e-05 -3.33969e-06 0)
(-1.65843e-05 2.67761e-05 0)
(-1.03761e-05 5.72587e-05 0)
(-2.66169e-06 8.5982e-05 0)
(6.2288e-06 0.000110677 0)
(1.65264e-05 0.000128815 0)
(2.763e-05 0.000140002 0)
(3.83195e-05 0.000144439 0)
(4.78645e-05 0.000142546 0)
(5.52553e-05 0.000135778 0)
(5.94489e-05 0.000125915 0)
(6.0205e-05 0.000113703 0)
(5.77411e-05 9.6947e-05 0)
(4.77469e-05 7.16481e-05 0)
(4.47078e-05 1.04896e-05 0)
(2.47868e-06 -3.23432e-05 0)
(-6.97411e-08 2.81712e-05 1.76438e-20)
(-3.67083e-06 -1.08451e-05 2.02764e-20)
(-8.29802e-06 -4.25025e-05 -4.04717e-20)
(-1.40537e-05 -6.12855e-05 8.10553e-20)
(-1.97911e-05 -7.05667e-05 -8.08739e-20)
(-2.48415e-05 -7.1003e-05 0)
(-2.86355e-05 -6.28809e-05 8.11349e-20)
(-3.06659e-05 -4.68795e-05 8.15195e-20)
(-3.05471e-05 -2.42317e-05 -3.24183e-19)
(-2.82162e-05 3.43467e-06 1.61747e-19)
(-2.37065e-05 3.41217e-05 1.62781e-19)
(-1.6954e-05 6.52348e-05 -1.6189e-19)
(-8.39339e-06 9.43517e-05 -1.63182e-19)
(1.23626e-06 0.00011979 3.25454e-19)
(1.22268e-05 0.000139359 1.45499e-21)
(2.45607e-05 0.0001512 1.65488e-19)
(3.70008e-05 0.000155342 -3.25182e-19)
(4.86907e-05 0.000152401 -3.28908e-19)
(5.89099e-05 0.000143384 6.55058e-19)
(6.65411e-05 0.000130211 -3.26013e-19)
(7.01095e-05 0.000115253 0)
(6.69741e-05 9.99491e-05 3.25037e-19)
(4.7539e-05 8.26523e-05 -6.42481e-19)
(3.72108e-05 1.04632e-05 3.17405e-19)
(-4.21386e-07 -5.92081e-05 2.59071e-19)
(1.19325e-07 2.80551e-05 0)
(-3.51447e-06 -9.20425e-06 0)
(-8.77685e-06 -3.92798e-05 0)
(-1.54228e-05 -5.72004e-05 0)
(-2.21151e-05 -6.60198e-05 0)
(-2.80295e-05 -6.62555e-05 0)
(-3.24349e-05 -5.81423e-05 0)
(-3.47017e-05 -4.23727e-05 0)
(-3.43497e-05 -2.02085e-05 0)
(-3.12115e-05 6.79694e-06 0)
(-2.54776e-05 3.71033e-05 0)
(-1.7416e-05 6.80824e-05 0)
(-7.05325e-06 9.66027e-05 0)
(4.9015e-06 0.000121859 0)
(1.76174e-05 0.00014241 0)
(3.09107e-05 0.000156453 0)
(4.431e-05 0.000163335 0)
(5.68865e-05 0.000163452 0)
(6.76538e-05 0.000157651 -3.21634e-19)
(7.60047e-05 0.000147334 3.18679e-19)
(8.12854e-05 0.000134342 0)
(8.05186e-05 0.000120363 0)
(5.38134e-05 0.000110649 0)
(4.24105e-05 1.60531e-05 0)
(1.62314e-05 -0.000125339 0)
(2.02466e-07 2.77865e-05 0)
(-3.28898e-06 -7.3264e-06 0)
(-8.88886e-06 -3.57761e-05 0)
(-1.59605e-05 -5.2914e-05 0)
(-2.3054e-05 -6.15294e-05 0)
(-2.92403e-05 -6.20082e-05 0)
(-3.36641e-05 -5.45304e-05 0)
(-3.55938e-05 -3.97657e-05 0)
(-3.43363e-05 -1.89909e-05 0)
(-2.92975e-05 6.09477e-06 0)
(-2.1173e-05 3.39837e-05 -1.54476e-19)
(-1.12801e-05 6.30381e-05 1.53694e-19)
(1.3404e-06 9.04473e-05 0)
(1.63536e-05 0.000113841 0)
(3.19366e-05 0.000133007 0)
(4.7692e-05 0.000147594 0)
(6.28948e-05 0.000157819 0)
(7.65904e-05 0.000164664 0)
(8.81391e-05 0.000169931 0)
(9.7199e-05 0.000176005 0)
(0.000102759 0.000185788 0)
(0.00010351 0.000200461 -3.20653e-19)
(6.98731e-05 0.000228722 3.1729e-19)
(5.2224e-05 0.000167971 0)
(0.00015302 -0.000259162 0)
(2.50696e-07 2.81816e-05 0)
(-2.91015e-06 -4.16772e-06 0)
(-8.3529e-06 -3.11159e-05 0)
(-1.52812e-05 -4.80727e-05 0)
(-2.23105e-05 -5.76549e-05 0)
(-2.83871e-05 -6.01456e-05 0)
(-3.2567e-05 -5.56104e-05 0)
(-3.40549e-05 -4.45735e-05 0)
(-3.21765e-05 -2.81299e-05 0)
(-2.63862e-05 -7.98017e-06 0)
(-1.68417e-05 1.38055e-05 0)
(-4.50474e-06 3.60136e-05 0)
(9.69442e-06 5.72963e-05 0)
(2.55371e-05 7.50276e-05 0)
(4.28399e-05 8.88349e-05 0)
(6.07945e-05 9.86258e-05 0)
(7.84306e-05 0.00010474 0)
(9.48508e-05 0.000108259 0)
(0.000109397 0.000110985 0)
(0.00012166 0.000115216 0)
(0.000130792 0.000123201 0)
(0.000133235 0.000135436 0)
(0.000119698 0.00014213 0)
(3.32564e-05 0.000109513 0)
(-0.000456488 -0.00033996 0)
(2.52102e-07 2.9194e-05 0)
(-2.5667e-06 1.16394e-07 0)
(-7.52795e-06 -2.50426e-05 0)
(-1.39097e-05 -4.15725e-05 0)
(-2.04175e-05 -5.19566e-05 0)
(-2.59844e-05 -5.64209e-05 0)
(-2.96472e-05 -5.49152e-05 0)
(-3.05922e-05 -4.77871e-05 0)
(-2.81982e-05 -3.5883e-05 0)
(-2.20402e-05 -2.05702e-05 0)
(-1.19642e-05 -3.61193e-06 0)
(1.49465e-06 1.3449e-05 0)
(1.75261e-05 2.94754e-05 0)
(3.57892e-05 4.36048e-05 0)
(5.58331e-05 5.50269e-05 0)
(7.68153e-05 6.33932e-05 0)
(9.79126e-05 6.89975e-05 0)
(0.000118524 7.28291e-05 0)
(0.000138277 7.66113e-05 0)
(0.00015681 8.27114e-05 0)
(0.000173195 9.39021e-05 0)
(0.000184879 0.000112939 0)
(0.000188552 0.000142017 0)
(0.000188175 0.000176705 0)
(0.000194053 0.000204381 0)
(3.07572e-07 2.99678e-05 0)
(-2.05841e-06 3.80566e-06 0)
(-6.26039e-06 -1.97063e-05 0)
(-1.17061e-05 -3.57145e-05 0)
(-1.7209e-05 -4.66333e-05 0)
(-2.17583e-05 -5.26469e-05 0)
(-2.44244e-05 -5.36064e-05 0)
(-2.4408e-05 -4.97027e-05 0)
(-2.11053e-05 -4.15721e-05 0)
(-1.41296e-05 -3.02542e-05 0)
(-3.33647e-06 -1.71202e-05 0)
(1.10604e-05 -3.64613e-06 0)
(2.85082e-05 9.08632e-06 0)
(4.84972e-05 2.02197e-05 0)
(7.05073e-05 2.90274e-05 0)
(9.3837e-05 3.52851e-05 0)
(0.000117794 3.93764e-05 0)
(0.000141816 4.22813e-05 0)
(0.000165486 4.55382e-05 0)
(0.000188443 5.13355e-05 0)
(0.000210263 6.27133e-05 0)
(0.000230691 8.40698e-05 0)
(0.00025166 0.000122022 0)
(0.000283055 0.000184504 0)
(0.000330688 0.00027255 0)
(3.83351e-07 3.04707e-05 0)
(-1.41202e-06 6.81274e-06 0)
(-4.62837e-06 -1.53018e-05 0)
(-8.8197e-06 -3.08967e-05 0)
(-1.29326e-05 -4.23618e-05 0)
(-1.60475e-05 -4.98619e-05 0)
(-1.73039e-05 -5.31638e-05 0)
(-1.59515e-05 -5.23123e-05 0)
(-1.1405e-05 -4.77491e-05 0)
(-3.29998e-06 -4.02675e-05 0)
(8.52162e-06 -3.09333e-05 0)
(2.39322e-05 -2.09221e-05 0)
(4.25366e-05 -1.12879e-05 0)
(6.38642e-05 -2.8276e-06 0)
(8.73709e-05 3.86942e-06 0)
(0.000112426 8.62527e-06 0)
(0.000138394 1.17681e-05 0)
(0.000164707 1.41638e-05 0)
(0.000190914 1.72419e-05 0)
(0.000216668 2.30961e-05 0)
(0.000241823 3.47837e-05 0)
(0.00026696 5.67135e-05 0)
(0.000294598 9.47871e-05 0)
(0.00033053 0.000154803 0)
(0.000375547 0.000236701 0)
(4.70546e-07 3.06147e-05 0)
(-6.46936e-07 8.93883e-06 0)
(-2.69015e-06 -1.21155e-05 0)
(-5.37008e-06 -2.74855e-05 0)
(-7.77994e-06 -3.95597e-05 0)
(-9.11697e-06 -4.85043e-05 0)
(-8.61253e-06 -5.40209e-05 0)
(-5.5843e-06 -5.60288e-05 0)
(5.08912e-07 -5.47969e-05 0)
(1.00223e-05 -5.09136e-05 0)
(2.31029e-05 -4.51906e-05 0)
(3.96692e-05 -3.85664e-05 0)
(5.94227e-05 -3.19223e-05 0)
(8.19399e-05 -2.59742e-05 0)
(0.000106704 -2.12121e-05 0)
(0.000133125 -1.77738e-05 0)
(0.000160611 -1.53592e-05 0)
(0.000188616 -1.3169e-05 0)
(0.000216674 -9.84586e-06 0)
(0.000244486 -3.38076e-06 0)
(0.000272099 9.10655e-06 0)
(0.000300254 3.15433e-05 0)
(0.000330872 6.87036e-05 0)
(0.000366704 0.000124946 0)
(0.000406989 0.000201753 0)
(5.58364e-07 3.03494e-05 0)
(1.8539e-07 1.00466e-05 0)
(-5.67274e-07 -1.03718e-05 0)
(-1.5662e-06 -2.57959e-05 0)
(-2.06435e-06 -3.86302e-05 0)
(-1.38407e-06 -4.90579e-05 0)
(1.1381e-06 -5.67381e-05 0)
(6.09997e-06 -6.14893e-05 0)
(1.39863e-05 -6.34306e-05 0)
(2.51201e-05 -6.29659e-05 0)
(3.96435e-05 -6.0702e-05 0)
(5.75004e-05 -5.73663e-05 0)
(7.84501e-05 -5.3676e-05 0)
(0.000102116 -5.02307e-05 0)
(0.00012802 -4.74322e-05 0)
(0.000155621 -4.53785e-05 0)
(0.000184373 -4.37808e-05 0)
(0.000213777 -4.18963e-05 0)
(0.000243427 -3.84627e-05 0)
(0.000273109 -3.15989e-05 0)
(0.000302935 -1.87333e-05 0)
(0.000333581 3.43422e-06 0)
(0.00036647 3.8702e-05 0)
(0.000403261 9.06162e-05 0)
(0.000444159 0.000161764 0)
(6.43703e-07 2.965e-05 0)
(1.03767e-06 1.00741e-05 0)
(1.62651e-06 -1.01727e-05 0)
(2.38794e-06 -2.59703e-05 0)
(3.91257e-06 -3.97492e-05 0)
(6.74719e-06 -5.17254e-05 0)
(1.1443e-05 -6.15343e-05 0)
(1.85073e-05 -6.89165e-05 0)
(2.83528e-05 -7.38662e-05 0)
(4.12655e-05 -7.66275e-05 0)
(5.73738e-05 -7.76351e-05 0)
(7.66384e-05 -7.74367e-05 0)
(9.88585e-05 -7.65931e-05 0)
(0.000123702 -7.55866e-05 0)
(0.000150741 -7.4733e-05 0)
(0.000179491 -7.40908e-05 0)
(0.000209463 -7.33825e-05 0)
(0.000240223 -7.19274e-05 0)
(0.000271446 -6.85823e-05 0)
(0.000303004 -6.16825e-05 0)
(0.000335078 -4.90157e-05 0)
(0.000368306 -2.78555e-05 0)
(0.000403866 4.84013e-06 0)
(0.000443218 5.20234e-05 0)
(0.000487711 0.000116304 0)
(7.24034e-07 2.85162e-05 0)
(1.87437e-06 9.01073e-06 0)
(3.79192e-06 -1.15416e-05 0)
(6.31662e-06 -2.80582e-05 0)
(9.88268e-06 -4.29932e-05 0)
(1.49114e-05 -5.66042e-05 0)
(2.18407e-05 -6.85221e-05 0)
(3.10804e-05 -7.84317e-05 0)
(4.29746e-05 -8.62292e-05 0)
(5.77613e-05 -9.20281e-05 0)
(7.5552e-05 -9.61143e-05 0)
(9.63156e-05 -9.88815e-05 0)
(0.000119883 -0.000100753 0)
(0.000145967 -0.0001021 0)
(0.000174195 -0.000103161 0)
(0.000204144 -0.000103965 0)
(0.000235398 -0.000104251 0)
(0.000267594 -0.000103417 0)
(0.000300495 -0.000100463 0)
(0.000334061 -9.39643e-05 0)
(0.000368543 -8.20725e-05 0)
(0.000404588 -6.2578e-05 0)
(0.000443302 -3.30788e-05 0)
(0.000486204 8.78845e-06 0)
(0.000535225 6.51732e-05 0)
(7.95349e-07 2.69584e-05 0)
(2.66731e-06 6.90215e-06 0)
(5.85571e-06 -1.44402e-05 0)
(1.00694e-05 -3.20293e-05 0)
(1.56193e-05 -4.83439e-05 0)
(2.27979e-05 -6.36941e-05 0)
(3.19325e-05 -7.77205e-05 0)
(4.33426e-05 -9.00735e-05 0)
(5.72971e-05 -0.000100575 0)
(7.39892e-05 -0.000109233 0)
(9.35071e-05 -0.000116212 0)
(0.000115824 -0.000121775 0)
(0.000140797 -0.000126228 0)
(0.000168183 -0.000129845 0)
(0.000197667 -0.000132802 0)
(0.000228895 -0.000135103 0)
(0.000261522 -0.000136519 0)
(0.000295269 -0.000136536 0)
(0.00032998 -0.000134312 0)
(0.000365697 -0.000128669 0)
(0.000402739 -0.000118107 0)
(0.000441779 -0.000100876 0)
(0.000483911 -7.51214e-05 0)
(0.00053069 -3.90717e-05 0)
(0.000584215 8.79421e-06 0)
(8.71674e-07 2.50113e-05 0)
(3.40263e-06 3.82005e-06 0)
(7.74678e-06 -1.87808e-05 0)
(1.3536e-05 -3.7789e-05 0)
(2.09482e-05 -5.57132e-05 0)
(3.01627e-05 -7.29204e-05 0)
(4.14059e-05 -8.90743e-05 0)
(5.49067e-05 -0.000103808 0)
(7.08679e-05 -0.00011689 0)
(8.94327e-05 -0.00012825 0)
(0.000110667 -0.000137952 0)
(0.000134545 -0.000146157 0)
(0.000160947 -0.00015307 0)
(0.000189671 -0.000158887 0)
(0.000220459 -0.000163734 0)
(0.000253025 -0.000167604 0)
(0.000287099 -0.000170306 0)
(0.00032248 -0.000171419 0)
(0.00035909 -0.000170267 0)
(0.000397039 -0.00016591 0)
(0.000436696 -0.00015717 0)
(0.000478754 -0.000142707 0)
(0.000524286 -0.000121135 0)
(0.000574798 -9.11999e-05 0)
(0.000632295 -5.19756e-05 0)
(9.41769e-07 2.27232e-05 0)
(4.056e-06 -1.49768e-07 0)
(9.42969e-06 -2.44352e-05 0)
(1.66385e-05 -4.51937e-05 0)
(2.57474e-05 -6.49556e-05 0)
(3.68326e-05 -8.4147e-05 0)
(5.00283e-05 -0.000102464 0)
(6.54853e-05 -0.000119537 0)
(8.33382e-05 -0.000135102 0)
(0.000103688 -0.00014903 0)
(0.000126575 -0.000161311 0)
(0.000151972 -0.000172022 0)
(0.000179779 -0.000181293 0)
(0.000209834 -0.000189257 0)
(0.00024193 -0.000196003 0)
(0.000275847 -0.000201525 0)
(0.000311386 -0.000205675 0)
(0.000348416 -0.00020813 0)
(0.000386927 -0.00020837 0)
(0.000427081 -0.000205678 0)
(0.000469278 -0.000199169 0)
(0.000514206 -0.000187855 0)
(0.000562887 -0.000170753 0)
(0.000616715 -0.000147028 0)
(0.00067748 -0.000116189 0)
(9.99427e-07 2.01338e-05 0)
(4.61683e-06 -4.89316e-06 0)
(1.08806e-05 -3.12493e-05 0)
(1.93336e-05 -5.40661e-05 0)
(2.99413e-05 -7.58854e-05 0)
(4.26951e-05 -9.71912e-05 0)
(5.76494e-05 -0.000117719 0)
(7.48799e-05 -0.00013711 0)
(9.44654e-05 -0.000155084 0)
(0.000116462 -0.000171473 0)
(0.000140888 -0.000186211 0)
(0.000167713 -0.000199316 0)
(0.000196854 -0.000210861 0)
(0.000228181 -0.000220932 0)
(0.000261537 -0.000229597 0)
(0.000296757 -0.000236856 0)
(0.000333706 -0.000242611 0)
(0.000372315 -0.000246633 0)
(0.000412627 -0.000248546 0)
(0.000454842 -0.000247835 0)
(0.000499368 -0.00024387 0)
(0.000546864 -0.000235966 0)
(0.000598273 -0.000223467 0)
(0.000654842 -0.000205873 0)
(0.000718113 -0.000182995 0)
(1.04555e-06 1.72883e-05 0)
(5.08136e-06 -1.02904e-05 0)
(1.20938e-05 -3.90568e-05 0)
(2.16009e-05 -6.42102e-05 0)
(3.3496e-05 -8.82912e-05 0)
(4.76959e-05 -0.00011184 0)
(6.41853e-05 -0.000134635 0)
(8.29793e-05 -0.000156339 0)
(0.000104101 -0.000176668 0)
(0.000127569 -0.000195432 0)
(0.00015338 -0.000212529 0)
(0.000181499 -0.000227937 0)
(0.000211854 -0.000241686 0)
(0.000244345 -0.000253835 0)
(0.000278854 -0.000264439 0)
(0.000315266 -0.000273515 0)
(0.000353498 -0.000281012 0)
(0.000393532 -0.000286791 0)
(0.000435448 -0.000290607 0)
(0.00047947 -0.000292122 0)
(0.000525999 -0.000290922 0)
(0.000575644 -0.00028657 0)
(0.000629252 -0.000278678 0)
(0.000687907 -0.000267 0)
(0.000752909 -0.000251558 0)
(1.08074e-06 1.42346e-05 0)
(5.45388e-06 -1.62236e-05 0)
(1.30702e-05 -4.76892e-05 0)
(2.34455e-05 -7.54227e-05 0)
(3.641e-05 -0.00010195 0)
(5.18239e-05 -0.000127862 0)
(6.96147e-05 -0.000152985 0)
(8.974e-05 -0.000177007 0)
(0.00011218 -0.000199654 0)
(0.000136918 -0.000220727 0)
(0.000163929 -0.000240105 0)
(0.000193171 -0.000257739 0)
(0.000224582 -0.000273635 0)
(0.000258083 -0.000287835 0)
(0.000293589 -0.000300394 0)
(0.000331025 -0.000311348 0)
(0.000370349 -0.000320698 0)
(0.000411579 -0.000328381 0)
(0.000454825 -0.000334273 0)
(0.000500317 -0.000338183 0)
(0.000548434 -0.000339879 0)
(0.000599731 -0.000339126 0)
(0.000654947 -0.000335743 0)
(0.000715008 -0.000329677 0)
(0.000780992 -0.00032109 0)
(1.10593e-06 1.10194e-05 0)
(5.73804e-06 -2.25799e-05 0)
(1.3825e-05 -5.69823e-05 0)
(2.48847e-05 -8.75028e-05 0)
(3.87079e-05 -0.000116638 0)
(5.51062e-05 -0.000145023 0)
(7.39586e-05 -0.000172531 0)
(9.51801e-05 -0.000198884 0)
(0.000118708 -0.000223823 0)
(0.000144496 -0.000247152 0)
(0.000172499 -0.000268746 0)
(0.000202668 -0.000288541 0)
(0.000234946 -0.000306532 0)
(0.00026927 -0.000322757 0)
(0.000305577 -0.000337275 0)
(0.000343825 -0.000350149 0)
(0.000384001 -0.000361425 0)
(0.000426149 -0.000371116 0)
(0.000470394 -0.000379194 0)
(0.000516961 -0.000385597 0)
(0.000566203 -0.00039024 0)
(0.00061861 -0.000393048 0)
(0.00067482 -0.000394003 0)
(0.000735611 -0.000393189 0)
(0.000801867 -0.000390867 0)
(1.12158e-06 7.68569e-06 0)
(5.94322e-06 -2.9254e-05 0)
(1.43735e-05 -6.6782e-05 0)
(2.59511e-05 -0.000100259 0)
(4.04314e-05 -0.000132138 0)
(5.75925e-05 -0.000163091 0)
(7.72763e-05 -0.000193037 0)
(9.93568e-05 -0.000221734 0)
(0.000123741 -0.000248946 0)
(0.000150353 -0.00027449 0)
(0.000179131 -0.000298242 0)
(0.000210016 -0.00032014 0)
(0.000242952 -0.000340177 0)
(0.000277886 -0.000358393 0)
(0.000314774 -0.000374861 0)
(0.000353591 -0.000389671 0)
(0.000394348 -0.000402912 0)
(0.000437102 -0.000414663 0)
(0.000481984 -0.00042498 0)
(0.000529207 -0.000433907 0)
(0.000579089 -0.000441477 0)
(0.000632056 -0.000447743 0)
(0.000688653 -0.000452807 0)
(0.000749522 -0.000456858 0)
(0.000815388 -0.000460218 0)
(1.12881e-06 4.27263e-06 0)
(6.0761e-06 -3.6151e-05 0)
(1.47401e-05 -7.69473e-05 0)
(2.66796e-05 -0.000113514 0)
(4.16336e-05 -0.000148246 0)
(5.93519e-05 -0.000181845 0)
(7.96456e-05 -0.000214274 0)
(0.000102361 -0.000245326 0)
(0.000127374 -0.000274795 0)
(0.000154586 -0.000302516 0)
(0.000183918 -0.000328376 0)
(0.000215301 -0.000352322 0)
(0.000248678 -0.000374352 0)
(0.000283999 -0.000394517 0)
(0.000321231 -0.000412909 0)
(0.000360362 -0.000429644 0)
(0.000401413 -0.000444853 0)
(0.000444451 -0.000458671 0)
(0.000489599 -0.000471228 0)
(0.000537055 -0.00048265 0)
(0.000587098 -0.000493067 0)
(0.000640094 -0.000502631 0)
(0.000696498 -0.000511536 0)
(0.00075684 -0.000520046 0)
(0.000821704 -0.000528524 0)
(1.12819e-06 8.14844e-07 0)
(6.14756e-06 -4.31871e-05 0)
(1.49447e-05 -8.73526e-05 0)
(2.71121e-05 -0.000127108 0)
(4.23724e-05 -0.000164776 0)
(6.04593e-05 -0.000201081 0)
(8.1162e-05 -0.000236025 0)
(0.000104299 -0.00026944 0)
(0.000129726 -0.000301148 0)
(0.000157323 -0.000331009 0)
(0.000186993 -0.000358929 0)
(0.00021866 -0.000384865 0)
(0.000252258 -0.000408832 0)
(0.000287742 -0.000430896 0)
(0.00032508 -0.000451168 0)
(0.000364267 -0.000469792 0)