/*--------------------------------*- C++ -*----------------------------------*\
  =========                 |
  \\      /  F ield         | OpenFOAM: The Open Source CFD Toolbox
   \\    /   O peration     | Website:  https://openfoam.org
    \\  /    A nd           | Version:  13
     \\/     M anipulation  |
\*---------------------------------------------------------------------------*/
FoamFile
{
    format      ascii;
    class       volVectorField;
    location    "3";
    object      U;
}
// * * * * * * * * * * * * * * * * * * * * * * * * * * * * * * * * * * * * * //

dimensions      [0 1 -1 0 0 0 0];

internalField   nonuniform List<vector> 
6440
(
(0.00120061 0.00284729 0)
(0.00403277 0.00392383 0)
(0.00824652 0.00331329 -1.79423e-15)
(0.0130799 0.00293343 1.72165e-15)
(0.0181483 0.00297831 0)
(0.023456 0.00302742 -3.16184e-15)
(0.0287874 0.00304482 3.03968e-15)
(0.0340849 0.00302159 0)
(0.0392409 0.00308641 0)
(0.044139 0.00316054 0)
(0.0485906 0.00320808 5.2399e-15)
(0.0522239 0.00316935 -1.02512e-14)
(0.0551995 0.0030855 5.03255e-15)
(0.0580195 0.00315777 0)
(0.0606596 0.00266742 -9.93867e-15)
(0.0627783 0.000864889 9.9633e-15)
(0.0641658 -0.00157261 0)
(0.0642528 -0.00418125 0)
(0.0628647 -0.00731125 0)
(0.0586874 -0.00975985 0)
(0.0509541 -0.0103249 -9.61261e-15)
(0.0405844 -0.00873748 1.93066e-14)
(0.0290996 -0.00476814 -9.80966e-15)
(0.018066 0.00171562 -1.02402e-14)
(0.00448869 0.00685107 8.88066e-15)
(0.0031626 0.00675695 0)
(0.00989127 0.00916398 0)
(0.0175708 0.00917856 -1.98704e-15)
(0.0254632 0.00982009 1.89754e-15)
(0.0330468 0.0113045 0)
(0.0404272 0.0132635 -3.5916e-15)
(0.0475797 0.0155577 7.07581e-15)
(0.0547433 0.0181722 -3.50736e-15)
(0.0621391 0.0213665 0)
(0.0693145 0.0248578 0)
(0.0758917 0.0283835 0)
(0.0815485 0.0317181 -7.06956e-15)
(0.0858345 0.0343996 6.98708e-15)
(0.0888352 0.0357197 6.88813e-15)
(0.0906484 0.0350713 -6.79735e-15)
(0.091382 0.0324484 0)
(0.090537 0.028256 0)
(0.0875392 0.0231282 0)
(0.0817918 0.0178206 0)
(0.0724133 0.0134494 0)
(0.0594565 0.011357 -1.20822e-14)
(0.0443016 0.0122027 1.16639e-14)
(0.0281296 0.0170215 0)
(0.0136989 0.0247568 -1.10614e-14)
(0.00122889 0.0260675 1.82941e-14)
(0.00462617 0.0098535 0)
(0.013348 0.013554 0)
(0.0222899 0.0148427 0)
(0.0310983 0.0174178 0)
(0.0395765 0.0215129 0)
(0.0480448 0.026323 0)
(0.056757 0.0315503 4.02527e-15)
(0.0658788 0.0367316 -4.04465e-15)
(0.0748453 0.0422505 0)
(0.0829705 0.0476491 0)
(0.0898322 0.0523004 0)
(0.0948975 0.0561017 0)
(0.0981629 0.0590479 0)
(0.099535 0.0601876 7.58521e-15)
(0.0993122 0.0593895 -2.25595e-14)
(0.0979217 0.0567759 1.49947e-14)
(0.0953065 0.0527606 0)
(0.0909968 0.0478719 0)
(0.0842441 0.0427102 0)
(0.0742109 0.0382405 0)
(0.0606578 0.0353535 0)
(0.0443478 0.0353472 0)
(0.0260325 0.0394125 1.1997e-14)
(0.00984438 0.0460087 -1.09896e-14)
(-0.000964105 0.0404002 9.00314e-15)
(0.00578832 0.012356 0)
(0.0159192 0.0176892 0)
(0.0261952 0.0204932 -1.98017e-15)
(0.0354818 0.0250151 1.98099e-15)
(0.044109 0.0307519 0)
(0.0521722 0.0367375 -3.76616e-15)
(0.0599917 0.0420341 3.6678e-15)
(0.0684068 0.0471681 0)
(0.0768858 0.0527389 7.26339e-15)
(0.0851783 0.0581181 -7.31768e-15)
(0.0926766 0.0632991 7.41364e-15)
(0.0985879 0.0678722 -1.50267e-14)
(0.10254 0.0715508 7.5616e-15)
(0.104223 0.073606 0)
(0.103609 0.0737946 0)
(0.101466 0.0724096 0)
(0.0984463 0.0698575 1.53433e-14)
(0.0940071 0.0663424 -2.25647e-19)
(0.0872421 0.0620863 -1.50168e-14)
(0.0774097 0.0576276 0)
(0.0639306 0.0541846 0)
(0.0469844 0.053071 1.27809e-14)
(0.0269734 0.0563557 -1.20622e-14)
(0.00814356 0.0618124 -1.04872e-14)
(-0.00162342 0.0497432 1.78862e-14)
(0.00695637 0.0150153 0)
(0.0182124 0.0224761 0)
(0.0289204 0.0270194 -1.90587e-15)
(0.037716 0.0325396 1.83162e-15)
(0.0446991 0.038869 0)
(0.0505435 0.0450519 -3.30311e-15)
(0.0564619 0.0503912 3.19461e-15)
(0.0631894 0.0549406 0)
(0.0710976 0.0591141 6.33579e-15)
(0.0796114 0.0633706 -6.53055e-15)
(0.08812 0.0677752 6.79974e-15)
(0.0960294 0.0724385 -1.41702e-14)
(0.102806 0.0771676 7.30904e-15)
(0.107152 0.0810687 0)
(0.107885 0.083004 1.463e-14)
(0.105925 0.083434 -1.47805e-14)
(0.102752 0.0826452 1.51394e-14)
(0.0983238 0.0807209 -2.54856e-19)
(0.0915619 0.0773704 -1.5115e-14)
(0.0818111 0.0728818 0)
(0.0681778 0.0681651 1.35889e-14)
(0.0501297 0.0653023 -4.15256e-19)
(0.0267777 0.0670335 -1.09928e-14)
(0.00596897 0.0721576 -9.83777e-15)
(-0.00250446 0.0561116 8.71528e-15)
(0.00784613 0.0186092 0)
(0.0195518 0.0290835 0)
(0.0297396 0.0349063 -1.71749e-15)
(0.0366438 0.0414388 1.59324e-15)
(0.0408275 0.0484141 0)
(0.0440978 0.0546197 -2.78133e-15)
(0.0483771 0.0593971 2.68849e-15)
(0.0548718 0.0627569 0)
(0.063654 0.0654359 5.6101e-15)
(0.0733311 0.0683416 -5.95834e-15)
(0.0828649 0.0720748 6.40949e-15)
(0.0926874 0.0769576 -1.37835e-14)
(0.102569 0.0827157 7.25291e-15)
(0.11047 0.0882804 0)
(0.113788 0.0915384 -1.42852e-14)
(0.111832 0.0919849 1.40285e-14)
(0.107149 0.0906141 1.43628e-14)
(0.10144 0.088353 -2.75314e-19)
(0.0942109 0.085118 -1.50237e-14)
(0.0846352 0.0807048 0)
(0.0712857 0.0755725 -1.40213e-14)
(0.0518262 0.0713446 2.4718e-14)
(0.0261112 0.0720384 -1.07601e-14)
(0.00259162 0.077252 -8.93834e-15)
(-0.00461258 0.0615784 8.31092e-15)
(0.00863196 0.0237832 0)
(0.0197965 0.0375274 0)
(0.0278853 0.0454038 -1.46948e-15)
(0.0315184 0.0533545 1.32944e-15)
(0.0329739 0.0607509 0)
(0.034657 0.066596 -2.31302e-15)
(0.0387562 0.0703003 2.29151e-15)
(0.0461864 0.072242 0)
(0.0562278 0.0739007 5.08059e-15)
(0.0667687 0.0762573 -5.58561e-15)
(0.0768555 0.0797473 6.15417e-15)
(0.087633 0.0846618 -1.31347e-14)
(0.099762 0.0912534 7.10001e-15)
(0.11077 0.0974751 0)
(0.11683 0.100572 0)
(0.115214 0.0985282 0)
(0.108661 0.0934034 1.33899e-14)
(0.100887 0.0877999 -2.80411e-19)
(0.0935633 0.0832105 -1.38421e-14)
(0.0858376 0.0797543 0)
(0.0745156 0.0761162 0)
(0.0555052 0.0729794 1.24729e-14)
(0.025864 0.0738588 -1.02456e-14)
(-0.000419164 0.0804091 -8.63785e-15)
(-0.00685944 0.0677439 7.83361e-15)
(0.00939229 0.0312812 0)
(0.0186894 0.0498996 0)
(0.022492 0.0604454 -1.2045e-15)
(0.0225376 0.0693818 1.07899e-15)
(0.0219677 0.0765305 0)
(0.0233706 0.0810272 -1.9484e-15)
(0.0283187 0.0827629 1.98704e-15)
(0.0371528 0.08329 0)
(0.0477231 0.0842978 4.72327e-15)
(0.0570552 0.0858963 -5.26604e-15)
(0.0655573 0.0883845 5.58972e-15)
(0.0755694 0.0929641 -1.17297e-14)
(0.0877504 0.0996775 6.37659e-15)
(0.100361 0.105634 0)
(0.109514 0.108533 0)
(0.110834 0.104147 0)
(0.105888 0.0946995 1.32347e-14)
(0.0991615 0.0851503 -2.96698e-19)
(0.0935492 0.0787504 -1.22542e-14)
(0.0879884 0.0757857 0)
(0.0788668 0.074717 0)
(0.0598568 0.0740227 1.15012e-14)
(0.0285601 0.0763752 -1.0116e-14)
(-0.00252865 0.0838403 -8.00349e-15)
(-0.00857432 0.0751579 1.4748e-14)
(0.0092575 0.0427924 0)
(0.0149828 0.0681479 0)
(0.0136485 0.0806025 0)
(0.010332 0.089175 0)
(0.00823162 0.0943725 1.65821e-15)
(0.00952092 0.0958017 -1.65859e-15)
(0.0151859 0.094502 1.75395e-15)
(0.0242502 0.09295 -1.93472e-15)
(0.0331966 0.0921085 4.35572e-15)
(0.0401626 0.0914352 -2.15492e-20)
(0.0473361 0.0920929 -2.94854e-20)
(0.0561382 0.0960735 -5.06845e-15)
(0.0672344 0.102523 -5.48368e-15)
(0.0789833 0.108075 1.22471e-14)
(0.0889318 0.109418 -2.08584e-14)
(0.0953852 0.104047 1.47099e-14)
(0.0968551 0.093291 0)
(0.0964142 0.0834177 1.23253e-14)
(0.0946587 0.0765303 -1.12396e-14)
(0.0914617 0.0739053 1.10052e-14)
(0.0836055 0.073876 -4.63757e-19)
(0.0660383 0.0761388 -5.26384e-19)
(0.0327566 0.0793267 -9.24175e-15)
(0.000158746 0.089301 0)
(-0.0084924 0.0852393 -6.82465e-15)
(0.00829018 0.0610849 0)
(0.00833978 0.0932348 0)
(0.00174201 0.105413 0)
(-0.00518718 0.111283 0)
(-0.00926669 0.112106 -1.38639e-15)
(-0.00882734 0.108363 1.43012e-15)
(-0.00367418 0.102517 -1.55242e-15)
(0.0040597 0.097346 1.75532e-15)
(0.0110484 0.0930431 0)
(0.0173156 0.0893778 -4.06705e-15)
(0.0248085 0.0889843 2.58136e-20)
(0.0341901 0.0921252 4.42252e-15)
(0.044806 0.0966861 0)
(0.0553879 0.0994317 -5.41111e-15)
(0.0652843 0.0982789 1.87589e-14)
(0.0747234 0.0910704 -1.31712e-14)
(0.0826765 0.0817086 1.21318e-14)
(0.0904268 0.0764178 -1.12939e-14)
(0.0954204 0.0740435 0)
(0.0943345 0.0725916 -9.58248e-15)
(0.0881872 0.0740488 1.91202e-14)
(0.0729019 0.077488 -1.86063e-14)
(0.0424122 0.0846681 8.75063e-15)
(0.00598858 0.0972111 0)
(-0.00653616 0.0977023 -6.31792e-15)
(0.00621555 0.0863927 0)
(-0.000876761 0.124745 0)
(-0.0134885 0.134098 0)
(-0.0248976 0.134572 0)
(-0.0321765 0.128501 1.16773e-15)
(-0.0336807 0.117773 -1.23719e-15)
(-0.0297042 0.106241 1.38777e-15)
(-0.023335 0.0962802 -1.59899e-15)
(-0.0167523 0.0874394 3.41339e-15)
(-0.00875545 0.0814424 -2.01862e-20)
(0.00127191 0.0796166 -3.59719e-15)
(0.0128438 0.0804864 0)
(0.0249448 0.0815247 -4.28153e-15)
(0.0369737 0.0802352 9.78998e-15)
(0.0494198 0.0755154 -1.63534e-14)
(0.0613791 0.0671962 1.04804e-14)
(0.0734462 0.0620515 0)
(0.0858259 0.0631531 9.1788e-15)
(0.0965087 0.0692881 -9.23575e-15)
(0.0982005 0.0721711 8.18029e-15)
(0.0941917 0.0753714 -4.40914e-19)
(0.0823354 0.0808136 -7.87828e-15)
(0.0546339 0.0909895 0)
(0.0169426 0.108353 0)
(-0.00283651 0.113661 0)
(0.00269065 0.119551 0)
(-0.0129141 0.162787 0)
(-0.0326934 0.166803 5.04997e-16)
(-0.0500294 0.159393 -4.83437e-16)
(-0.0615323 0.144354 0)
(-0.0652766 0.125343 1.07897e-15)
(-0.0623541 0.107287 -2.48959e-15)
(-0.0562506 0.091573 1.42008e-15)
(-0.047334 0.0781956 0)
(-0.0358593 0.0696511 0)
(-0.021939 0.0651237 0)
(-0.00654792 0.0622406 3.37946e-15)
(0.00970946 0.0588578 -3.81763e-15)
(0.0267572 0.0541034 -4.47283e-15)
(0.044084 0.0459389 -4.5172e-15)
(0.0602529 0.0396429 7.9e-15)
(0.0753897 0.0401163 7.35668e-15)
(0.0895675 0.0481491 -7.30741e-15)
(0.101943 0.0622531 0)
(0.10609 0.0724231 0)
(0.104056 0.0798279 6.44825e-15)
(0.095043 0.0871513 -6.25958e-15)
(0.0712701 0.0997379 0)
(0.0310776 0.12007 5.82074e-15)
(0.00209965 0.131569 -1.04277e-14)
(-0.00174446 0.161986 0)
(-0.028158 0.208371 0)
(-0.0568366 0.204793 -4.10565e-16)
(-0.0813044 0.187421 4.01094e-16)
(-0.097522 0.161671 8.40229e-16)
(-0.103089 0.133007 -1.89487e-15)
(-0.0999845 0.106905 2.2631e-15)
(-0.0917944 0.0840182 -1.20421e-15)
(-0.07899 0.065941 0)
(-0.062385 0.0539755 2.4802e-15)
(-0.0431024 0.0454025 -2.67021e-15)
(-0.0222261 0.0375591 -2.96257e-15)
(0.000301855 0.0295844 2.39698e-20)
(0.0242004 0.0205653 7.33757e-15)
(0.0471967 0.0124863 -1.01241e-14)
(0.068099 0.0113651 6.07577e-15)
(0.086619 0.0184809 0)
(0.102449 0.0332368 0)
(0.115389 0.0543916 0)
(0.121594 0.0733493 5.83188e-15)
(0.12072 0.0871479 -5.26577e-15)
(0.113159 0.098107 0)
(0.0900344 0.111819 0)
(0.0500169 0.136123 -5.02082e-15)
(0.0103464 0.155097 2.77573e-19)
(-0.00757204 0.215535 0)
(-0.0469378 0.262951 0)
(-0.0861641 0.249746 3.35159e-16)
(-0.118758 0.220246 -3.33995e-16)
(-0.139539 0.181046 -7.18201e-16)
(-0.14585 0.139708 1.69025e-15)
(-0.14089 0.102802 -2.04051e-15)
(-0.128397 0.0712661 1.00312e-15)
(-0.1098 0.0478975 0)
(-0.0866797 0.0314229 -2.12678e-15)
(-0.0605682 0.0179744 2.32243e-15)
(-0.0321411 0.00525708 2.62374e-15)
(-0.00177648 -0.00659311 -2.99801e-15)
(0.0288343 -0.017501 -2.93817e-15)
(0.0575419 -0.021811 -2.56803e-15)
(0.0830205 -0.0168755 4.77961e-15)
(0.105204 -0.00312599 4.673e-15)
(0.123496 0.0184772 -4.80161e-15)
(0.137919 0.0470876 0)
(0.145975 0.0753105 -4.96987e-15)
(0.145352 0.0979918 8.7855e-15)
(0.137773 0.115984 -4.09049e-15)
(0.115746 0.134929 0)
(0.0739634 0.162565 4.05131e-15)
(0.0226438 0.18963 -3.98304e-15)
(-0.0150685 0.281503 1.86009e-16)
(-0.0689701 0.327955 1.4699e-16)
(-0.120305 0.302864 -2.7558e-16)
(-0.161587 0.258145 5.60535e-16)
(-0.186561 0.201394 -2.15584e-20)
(-0.192814 0.142927 -7.67351e-16)
(-0.184201 0.091368 8.83618e-16)
(-0.164588 0.0499575 8.4289e-16)
(-0.138228 0.0206081 -1.72161e-15)
(-0.107101 -0.000879073 1.84107e-15)
(-0.072299 -0.0191545 -2.04488e-15)
(-0.0350177 -0.0362997 0)
(0.00336532 -0.0512357 -2.4435e-15)
(0.0403815 -0.0598983 4.40615e-15)
(0.0743197 -0.0580591 -2.00352e-15)
(0.104514 -0.046512 3.81513e-15)
(0.130767 -0.0259753 -3.80115e-15)
(0.152455 0.00250511 0)
(0.169433 0.0391968 0)
(0.180099 0.0776918 4.24669e-15)
(0.180041 0.111993 -4.24734e-19)
(0.173279 0.141552 -3.38155e-15)
(0.152327 0.169521 0)
(0.11054 0.202555 0)
(0.0385602 0.236202 -3.31494e-15)
(-0.0238904 0.361874 0)
(-0.0934852 0.404464 0)
(-0.158624 0.36415 0)
(-0.209672 0.299108 0)
(-0.23818 0.219135 0)
(-0.242394 0.137942 0)
(-0.227938 0.0696255 0)
(-0.198724 0.0180609 0)
(-0.162202 -0.0170587 1.48236e-15)
(-0.121602 -0.0431136 -1.61579e-15)
(-0.0767239 -0.0656979 0)
(-0.029958 -0.086236 0)
(0.015858 -0.100998 0)
(0.0587882 -0.10434 0)
(0.0977876 -0.0964358 0)
(0.132838 -0.0784033 0)
(0.163705 -0.0515005 -3.10086e-15)
(0.18987 -0.0160691 6.49468e-15)
(0.210761 0.0288698 -7.10284e-15)
(0.225422 0.0786532 3.61186e-15)
(0.227368 0.127897 3.0935e-15)
(0.223285 0.17367 -2.79682e-15)
(0.20598 0.216701 -2.65304e-15)
(0.163759 0.261144 2.61915e-15)
(0.0651989 0.312124 -2.71089e-15)
(-0.0330777 0.457064 0)
(-0.118337 0.492826 0)
(-0.197925 0.433062 1.93674e-16)
(-0.258775 0.342108 -2.05824e-16)
(-0.292767 0.23136 0)
(-0.293036 0.122932 6.83562e-16)
(-0.267822 0.0373694 -1.27062e-15)
(-0.227535 -0.0227503 6.19273e-16)
(-0.179419 -0.0636184 1.30295e-15)
(-0.128502 -0.0926948 -1.43127e-15)
(-0.0730276 -0.118949 -1.62697e-15)
(-0.0175152 -0.141187 3.31351e-15)
(0.0351022 -0.152515 -1.48032e-15)
(0.0835702 -0.150096 -1.35054e-15)
(0.128025 -0.136622 -1.28618e-15)
(0.168429 -0.112672 2.52009e-15)
(0.204804 -0.0800319 0)
(0.236658 -0.037792 2.66681e-15)
(0.26341 0.0146817 -2.92368e-15)
(0.284271 0.0763288 0)
(0.291804 0.141659 2.58382e-15)
(0.294035 0.206414 -4.63054e-15)
(0.282289 0.268644 2.1339e-15)
(0.24522 0.328429 2.07713e-15)
(0.116366 0.393854 -4.22633e-15)
(-0.0409141 0.564804 9.93895e-17)
(-0.139449 0.591502 8.44387e-17)
(-0.232032 0.508853 -1.6735e-16)
(-0.301259 0.388185 3.65582e-16)
(-0.336192 0.245082 -9.29655e-16)
(-0.340004 0.105903 6.45963e-16)
(-0.300779 -0.000568252 0)
(-0.247405 -0.0705817 1.1011e-15)
(-0.188128 -0.115492 -1.16807e-15)
(-0.126854 -0.147296 -1.30217e-15)
(-0.0619496 -0.175589 1.40398e-15)
(0.0013865 -0.196994 0)
(0.0600582 -0.202453 1.18344e-15)
(0.114537 -0.195326 -1.10172e-15)
(0.165068 -0.176412 2.11529e-15)
(0.211827 -0.147854 -8.63693e-20)
(0.254871 -0.109578 -4.22495e-15)
(0.293962 -0.0617855 2.20505e-15)
(0.328593 -0.0021463 -2.39555e-15)
(0.358658 0.0695467 4.13705e-19)
(0.375421 0.151921 4.29105e-15)
(0.386492 0.239718 -1.90568e-15)
(0.379458 0.335696 0)
(0.354642 0.433535 0)
(0.172965 0.588196 0)
(-0.0459212 0.678151 0)
(-0.15322 0.697473 0)
(-0.254487 0.589443 0)
(-0.329448 0.434221 0)
(-0.360337 0.253572 0)
(-0.36861 0.0826411 0)
(-0.321095 -0.0444587 -5.11426e-16)
(-0.256173 -0.124676 5.01537e-16)
(-0.187334 -0.172793 1.07258e-15)
(-0.117289 -0.206046 -1.20197e-15)
(-0.0444462 -0.234639 -1.19839e-15)
(0.0255401 -0.250685 1.07297e-15)
(0.0905178 -0.250857 0)
(0.151545 -0.238054 -9.18318e-16)
(0.209073 -0.21421 8.87518e-16)
(0.26335 -0.180662 0)
(0.314403 -0.137264 0)
(0.362683 -0.0837937 1.83439e-15)
(0.407384 -0.0180856 -3.93704e-15)
(0.450916 0.0603929 2.13254e-15)
(0.482742 0.154478 1.76183e-15)
(0.51287 0.258341 -3.06771e-15)
(0.522906 0.38294 1.37116e-15)
(0.523799 0.507928 0)
(0.325325 0.698077 -1.13377e-15)
(-0.0468314 0.788443 0)
(-0.15642 0.802553 0)
(-0.259456 0.665567 1.359e-16)
(-0.335221 0.470294 -1.58566e-16)
(-0.372473 0.24843 0)
(-0.369419 0.0476062 5.81664e-16)
(-0.323583 -0.100819 -9.5378e-16)
(-0.251654 -0.188723 4.65968e-16)
(-0.177125 -0.240267 9.93702e-16)
(-0.100638 -0.274163 -1.05252e-15)
(-0.0214858 -0.298175 0)
(0.0544326 -0.307657 8.80044e-16)
(0.125922 -0.301579 -8.18693e-16)
(0.194087 -0.282688 -7.76691e-16)
(0.259343 -0.253629 -7.52392e-16)
(0.321967 -0.214586 1.48494e-15)
(0.382462 -0.165699 0)
(0.441504 -0.105661 1.53311e-15)
(0.498844 -0.0328053 -1.62006e-15)
(0.557705 0.0544647 0)
(0.607703 0.160636 0)
(0.664789 0.28343 0)
(0.684202 0.451048 0)
(0.787163 0.635243 1.01316e-15)
(0.376038 1.20454 -1.65117e-15)
(-0.0431944 0.888073 0)
(-0.147334 0.905451 0)
(-0.246495 0.744722 0)
(-0.320017 0.512457 0)
(-0.362257 0.24986 0)
(-0.35725 0.0121243 0)
(-0.31034 -0.162168 0)
(-0.237094 -0.261485 0)
(-0.160176 -0.318755 0)
(-0.0794568 -0.354298 0)
(0.00438275 -0.374925 0)
(0.0853147 -0.377729 0)
(0.162918 -0.365644 0)
(0.237804 -0.342235 0)
(0.310663 -0.308891 0)
(0.382025 -0.266162 0)
(0.452557 -0.21321 0)
(0.523467 -0.148744 0)
(0.595295 -0.0703262 0)
(0.672831 0.0267421 0)
(0.750781 0.147071 0)
(0.848738 0.288213 0)
(0.934252 0.467447 0)
(1.18167 0.664339 0)
(1.2276 1.1644 0)
(-0.0356331 0.973934 0)
(-0.130145 1.00033 0)
(-0.220343 0.821722 0)
(-0.290789 0.557867 0)
(-0.338738 0.260592 0)
(-0.337302 -0.0109988 0)
(-0.293151 -0.213593 0)
(-0.223087 -0.327919 0)
(-0.146044 -0.394904 0)
(-0.0633516 -0.43653 0)
(0.0237488 -0.456246 0)
(0.108426 -0.456753 0)
(0.190606 -0.443147 0)
(0.271157 -0.418851 0)
(0.350503 -0.385659 0)
(0.429368 -0.343957 0)
(0.508805 -0.293347 0)
(0.590268 -0.232734 0)
(0.67556 -0.160667 0)
(0.767951 -0.0744108 0)
(0.872726 0.0302401 0)
(0.999071 0.158638 0)
(1.15298 0.312421 0)
(1.38019 0.439864 0)
(1.67761 0.696811 0)
(-0.0263435 1.046 0)
(-0.110228 1.08453 0)
(-0.190182 0.891704 0)
(-0.257018 0.604022 0)
(-0.310376 0.273691 0)
(-0.31179 -0.0385789 0)
(-0.269598 -0.266152 0)
(-0.203446 -0.396749 0)
(-0.127258 -0.474537 0)
(-0.0436382 -0.521364 0)
(0.0457573 -0.541222 0)
(0.133698 -0.540128 0)
(0.220518 -0.52515 0)
(0.30617 -0.500079 0)
(0.391403 -0.466816 0)
(0.477025 -0.426017 0)
(0.564194 -0.377541 0)
(0.654498 -0.320782 0)
(0.750128 -0.254893 0)
(0.853831 -0.178847 0)
(0.970987 -0.0919991 0)
(1.10554 0.00390039 0)
(1.27303 0.112116 0)
(1.46774 0.199152 0)
(1.72353 0.269445 0)
(-0.0184665 1.10679 0)
(-0.0928047 1.15908 0)
(-0.161842 0.955628 0)
(-0.224059 0.650494 0)
(-0.281628 0.287834 0)
(-0.286107 -0.0564628 0)
(-0.247429 -0.310117 0)
(-0.186437 -0.461285 0)
(-0.110844 -0.553888 0)
(-0.0259411 -0.608204 0)
(0.0663501 -0.629503 0)
(0.157973 -0.628447 0)
(0.248855 -0.613163 0)
(0.339411 -0.588142 0)
(0.429953 -0.555644 0)
(0.521328 -0.516582 0)
(0.61476 -0.471168 0)
(0.711814 -0.419275 0)
(0.814497 -0.36069 0)
(0.925309 -0.295462 0)
(1.04776 -0.224129 0)
(1.18567 -0.14966 0)
(1.34479 -0.0749173 0)
(1.52759 -0.0135582 0)
(1.73804 0.0339229 0)
(-0.0152732 1.16079 0)
(-0.0812443 1.22549 0)
(-0.140493 1.01465 0)
(-0.19681 0.698535 0)
(-0.256537 0.306036 0)
(-0.267675 -0.0688441 0)
(-0.231642 -0.348169 0)
(-0.175828 -0.52426 0)
(-0.0996166 -0.63447 0)
(-0.011504 -0.69759 0)
(0.0843313 -0.721377 0)
(0.180019 -0.720938 0)
(0.27557 -0.705827 0)
(0.370633 -0.681215 0)
(0.465857 -0.649743 0)
(0.562079 -0.612643 0)
(0.660436 -0.570415 0)
(0.762367 -0.523292 0)
(0.869595 -0.471529 0)
(0.984123 -0.415714 0)
(1.10842 -0.357016 0)
(1.24452 -0.298156 0)
(1.39577 -0.242602 0)
(1.56185 -0.199093 0)
(1.74053 -0.172676 0)
(-0.0163907 1.21258 0)
(-0.0775655 1.28654 0)
(-0.130746 1.07225 0)
(-0.183485 0.748797 0)
(-0.245064 0.334845 0)
(-0.264857 -0.0672476 0)
(-0.229449 -0.383454 0)
(-0.175716 -0.58907 0)
(-0.0959069 -0.718828 0)
(-0.00259473 -0.791463 0)
(0.0988997 -0.818018 0)
(0.199887 -0.818305 0)
(0.299996 -0.803291 0)
(0.399602 -0.778983 0)
(0.499053 -0.748454 0)
(0.599228 -0.713193 0)
(0.701269 -0.673934 0)
(0.806474 -0.631149 0)
(0.916268 -0.58536 0)
(1.03217 -0.537392 0)
(1.15568 -0.488604 0)
(1.28847 -0.441303 0)
(1.43073 -0.39864 0)
(1.58246 -0.365354 0)
(1.74087 -0.345794 0)
(-0.0207468 1.2667 0)
(-0.0818268 1.34709 0)
(-0.134732 1.13195 0)
(-0.189203 0.803273 0)
(-0.25183 0.371899 0)
(-0.284937 -0.0584125 0)
(-0.24534 -0.422011 0)
(-0.188064 -0.661201 0)
(-0.10065 -0.811192 0)
(0.00126882 -0.892794 0)
(0.110217 -0.921353 0)
(0.217375 -0.921428 0)
(0.322938 -0.905765 0)
(0.426839 -0.88116 0)
(0.529968 -0.851053 0)
(0.633313 -0.817135 0)
(0.737979 -0.780271 0)
(0.845166 -0.74105 0)
(0.956078 -0.700102 0)
(1.07186 -0.65829 0)
(1.19357 -0.616893 0)
(1.32164 -0.577712 0)
(1.457 -0.543031 0)
(1.59819 -0.515792 0)
(1.74298 -0.498224 0)
(-0.0264495 1.32734 0)
(-0.092081 1.41199 0)
(-0.150421 1.19815 0)
(-0.211256 0.865922 0)
(-0.279179 0.423734 0)
(-0.324799 -0.0447228 0)
(-0.279647 -0.470737 0)
(-0.211807 -0.747116 0)
(-0.111858 -0.916315 0)
(0.00150827 -1.00489 0)
(0.119903 -1.03322 0)
(0.234352 -1.03129 0)
(0.34509 -1.01352 0)
(0.45316 -0.987498 0)
(0.559441 -0.956956 0)
(0.665126 -0.92364 0)
(0.771445 -0.888426 0)
(0.879554 -0.851908 0)
(0.990511 -0.814701 0)
(1.10522 -0.777597 0)
(1.22433 -0.741656 0)
(1.34857 -0.708229 0)
(1.47718 -0.678996 0)
(1.61018 -0.655568 0)
(1.74619 -0.639381 0)
(-0.0318976 1.39652 0)
(-0.105025 1.48349 0)
(-0.174527 1.27389 0)
(-0.242108 0.951401 0)
(-0.320172 0.498882 0)
(-0.383624 -0.0337702 0)
(-0.328953 -0.534578 0)
(-0.242967 -0.852945 0)
(-0.125602 -1.03837 0)
(0.00230599 -1.13007 0)
(0.130672 -1.155 0)
(0.252315 -1.14831 0)
(0.368401 -1.12641 0)
(0.479883 -1.09752 0)
(0.588456 -1.06545 0)
(0.695604 -1.03185 0)
(0.802643 -0.997464 0)
(0.910745 -0.962788 0)
(1.0209 -0.928326 0)
(1.13389 -0.894737 0)
(1.25031 -0.862823 0)
(1.37011 -0.833622 0)
(1.49396 -0.808181 0)
(1.62071 -0.787615 0)
(1.74923 -0.772539 0)
(-0.035313 1.47426 0)
(-0.117263 1.563 0)
(-0.200741 1.36662 0)
(-0.280304 1.05784 0)
(-0.381399 0.580886 0)
(-0.451727 -0.0276869 0)
(-0.384235 -0.616207 0)
(-0.274177 -0.983081 0)
(-0.13519 -1.1799 0)
(0.00798597 -1.2693 0)
(0.146255 -1.28669 0)
(0.274554 -1.27213 0)
(0.394449 -1.24375 0)
(0.508374 -1.21035 0)
(0.618199 -1.1756 0)
(0.725732 -1.14083 0)
(0.832499 -1.1065 0)
(0.939716 -1.07291 0)
(1.04835 -1.04038 0)
(1.15912 -1.00939 0)
(1.27244 -0.980536 0)
(1.38888 -0.954531 0)
(1.50768 -0.932083 0)
(1.62929 -0.913737 0)
(1.75328 -0.899805 0)
(-0.0359136 1.56031 0)
(-0.125205 1.65308 0)
(-0.221633 1.47555 0)
(-0.31652 1.17708 0)
(-0.444033 0.664302 0)
(-0.517534 -0.023142 0)
(-0.429964 -0.712622 0)
(-0.29407 -1.13888 0)
(-0.132695 -1.34097 0)
(0.0248851 -1.42147 0)
(0.170812 -1.42701 0)
(0.303409 -1.40113 0)
(0.425698 -1.36404 0)
(0.540183 -1.32464 0)
(0.649704 -1.28618 0)
(0.756375 -1.24949 0)
(0.861803 -1.2146 0)
(0.967249 -1.1815 0)
(1.07368 -1.1503 0)
(1.18178 -1.12129 0)
(1.29205 -1.09486 0)
(1.40443 -1.07145 0)
(1.51976 -1.05147 0)
(1.63726 -1.03525 0)
(1.75656 -1.02277 0)
(-0.0311611 1.65011 0)
(-0.12141 1.75172 0)
(-0.222289 1.59193 0)
(-0.331646 1.2972 0)
(-0.475681 0.764556 0)
(-0.555043 0.00259014 0)
(-0.445742 -0.81247 0)
(-0.287516 -1.31738 0)
(-0.10804 -1.51811 0)
(0.0588695 -1.58312 0)
(0.208748 -1.5726 0)
(0.342427 -1.53262 0)
(0.463584 -1.48489 0)
(0.576464 -1.4384 0)
(0.683897 -1.3956 0)
(0.788207 -1.35654 0)
(0.891117 -1.32071 0)
(0.99388 -1.28775 0)
(1.09743 -1.25754 0)
(1.20242 -1.23014 0)
(1.30925 -1.20576 0)
(1.41852 -1.18463 0)
(1.52963 -1.16701 0)
(1.6434 -1.15291 0)
(1.75994 -1.14229 0)
(-0.0190062 1.73197 0)
(-0.0977378 1.84845 0)
(-0.191782 1.70088 0)
(-0.304149 1.41602 0)
(-0.45798 0.886104 0)
(-0.555543 0.0636224 0)
(-0.407678 -0.891695 0)
(-0.236854 -1.50893 0)
(-0.0516227 -1.70312 0)
(0.116458 -1.74798 0)
(0.263637 -1.71842 0)
(0.393026 -1.66227 0)
(0.509866 -1.60309 0)
(0.618033 -1.5492 0)
(0.721147 -1.50198 0)
(0.821509 -1.46052 0)
(0.920692 -1.42373 0)
(1.01986 -1.39085 0)
(1.11988 -1.36151 0)
(1.22135 -1.33561 0)
(1.32475 -1.31315 0)
(1.43001 -1.29426 0)
(1.53814 -1.27895 0)
(1.64862 -1.26725 0)
(1.76144 -1.25893 0)
(0.000798969 1.79062 0)
(-0.0498583 1.92872 0)
(-0.120124 1.78815 0)
(-0.225449 1.52149 0)
(-0.387978 1.03921 0)
(-0.475034 0.196723 0)
(-0.297183 -0.917878 0)
(-0.126267 -1.69648 0)
(0.0441716 -1.8829 0)
(0.201133 -1.90692 0)
(0.337562 -1.85721 0)
(0.456833 -1.78496 0)
(0.564132 -1.71475 0)
(0.664707 -1.6542 0)
(0.76137 -1.60324 0)
(0.85615 -1.55993 0)
(0.950422 -1.52254 0)
(1.04514 -1.48998 0)
(1.14103 -1.46167 0)
(1.2386 -1.43735 0)
(1.33812 -1.41691 0)
(1.4402 -1.40033 0)
(1.54429 -1.38755 0)
(1.65143 -1.37847 0)
(1.76201 -1.37282 0)
(0.0289091 1.81133 0)
(0.0182031 1.97294 0)
(-0.0139509 1.83408 0)
(-0.0886818 1.58553 0)
(-0.252563 1.20023 0)
(-0.358983 0.476107 0)
(-0.117584 -0.864209 0)
(0.0473321 -1.82739 0)
(0.182046 -2.03992 0)
(0.313914 -2.0483 0)
(0.42951 -1.98084 0)
(0.531578 -1.89466 0)
(0.625754 -1.81585 0)
(0.715487 -1.75066 0)
(0.803598 -1.69748 0)
(0.891435 -1.65338 0)
(0.979819 -1.61613 0)
(1.0694 -1.58442 0)
(1.16067 -1.55753 0)
(1.254 -1.53508 0)
(1.34969 -1.51689 0)
(1.44759 -1.50281 0)
(1.54876 -1.49275 0)
(1.65272 -1.48656 0)
(1.75965 -1.48402 0)
(0.0590086 1.7832 0)
(0.0949728 1.97554 0)
(0.117284 1.82732 0)
(0.085181 1.57848 0)
(-0.032235 1.19199 0)
(-0.202379 0.884263 0)
(0.0967579 -0.77309 0)
(0.26204 -1.92166 0)
(0.354108 -2.16036 0)
(0.448221 -2.16086 0)
(0.534798 -2.08112 0)
(0.614415 -1.98613 0)
(0.690999 -1.90293 0)
(0.768074 -1.83631 0)
(0.84636 -1.78315 0)
(0.926269 -1.73978 0)
(1.00808 -1.70375 0)
(1.09205 -1.67364 0)
(1.17839 -1.64871 0)
(1.26727 -1.62855 0)
(1.35877 -1.6129 0)
(1.45334 -1.60158 0)
(1.55035 -1.59451 0)
(1.65091 -1.5915 0)
(1.75545 -1.59232 0)
(0.0839359 1.70137 0)
(0.165871 1.92804 0)
(0.238793 1.7651 0)
(0.273596 1.48266 0)
(0.188179 1.11861 0)
(0.124101 0.724587 0)
(0.349099 -0.797412 0)
(0.492137 -1.98009 0)
(0.542221 -2.23965 0)
(0.592667 -2.23619 0)
(0.644201 -2.152 0)
(0.697774 -2.05563 0)
(0.756303 -1.9739 0)
(0.819603 -1.90991 0)
(0.887461 -1.85944 0)
(0.959149 -1.81858 0)
(1.03418 -1.78499 0)
(1.11238 -1.75737 0)
(1.19368 -1.73504 0)
(1.27805 -1.71762 0)
(1.36553 -1.70484 0)
(1.45576 -1.6966 0)
(1.54973 -1.69273 0)
(1.6469 -1.69312 0)
(1.74745 -1.69763 0)
(0.10177 1.56817 0)
(0.219775 1.83015 0)
(0.331459 1.66231 0)
(0.421981 1.32933 0)
(0.351294 0.972436 0)
(0.419432 0.4424 0)
(0.604607 -0.90765 0)
(0.708968 -2.02014 0)
(0.720878 -2.27108 0)
(0.728567 -2.27087 0)
(0.745961 -2.19195 0)
(0.775088 -2.10262 0)
(0.815726 -2.02886 0)
(0.866563 -1.97164 0)
(0.924746 -1.92645 0)
(0.988561 -1.88983 0)
(1.05704 -1.85987 0)
(1.12964 -1.83561 0)
(1.20601 -1.8165 0)
(1.28594 -1.80227 0)
(1.36919 -1.79273 0)
(1.45602 -1.78779 0)
(1.54567 -1.78734 0)
(1.63916 -1.79134 0)
(1.73696 -1.79959 0)
(0.10965 1.39375 0)
(0.25472 1.70461 0)
(0.395401 1.54381 0)
(0.516215 1.17184 0)
(0.49222 0.814732 0)
(0.604253 0.223372 0)
(0.798131 -1.0295 0)
(0.878612 -2.03817 0)
(0.861585 -2.27692 0)
(0.83738 -2.27285 0)
(0.827635 -2.20504 0)
(0.837699 -2.13077 0)
(0.865659 -2.07033 0)
(0.906203 -2.02308 0)
(0.956108 -1.98517 0)
(1.01308 -1.95416 0)
(1.07571 -1.92884 0)
(1.14316 -1.90865 0)
(1.21492 -1.89329 0)
(1.29059 -1.88263 0)
(1.36994 -1.8766 0)
(1.45243 -1.87514 0)
(1.53893 -1.87824 0)
(1.62877 -1.88585 0)
(1.72213 -1.89801 0)
(0.107478 1.19058 0)
(0.268432 1.56248 0)
(0.435396 1.42638 0)
(0.565757 1.04026 0)
(0.604698 0.645845 0)
(0.722065 0.0149532 0)
(0.918961 -1.15666 0)
(0.981106 -2.0428 0)
(0.948139 -2.24971 0)
(0.905045 -2.25229 0)
(0.882118 -2.2007 0)
(0.882803 -2.14673 0)
(0.902446 -2.10253 0)
(0.936341 -2.06681 0)
(0.980248 -2.03725 0)
(1.03178 -2.01268 0)
(1.0895 -1.99264 0)
(1.15247 -1.977 0)
(1.22005 -1.96574 0)
(1.29173 -1.9589 0)
(1.36712 -1.95652 0)
(1.44631 -1.95862 0)
(1.52838 -1.9653 0)
(1.61432 -1.9766 0)
(1.70449 -1.99254 0)
(0.0933999 0.980506 0)
(0.255843 1.4153 0)
(0.433074 1.31558 0)
(0.563286 0.927024 0)
(0.632376 0.494218 0)
(0.740069 -0.162527 0)
(0.957803 -1.3014 0)
(1.00264 -2.0456 0)
(0.97856 -2.20877 0)
(0.933231 -2.22041 0)
(0.909179 -2.1906 0)
(0.908493 -2.15817 0)
(0.926142 -2.12997 0)
(0.95645 -2.10566 0)
(0.996477 -2.0846 0)
(1.04415 -2.0667 0)
(1.09807 -2.05217 0)
(1.1573 -2.04128 0)
(1.2212 -2.03426 0)
(1.28925 -2.03132 0)
(1.36109 -2.03261 0)
(1.43606 -2.0383 0)
(1.51495 -2.04851 0)
(1.59701 -2.06336 0)
(1.68232 -2.08306 0)
(0.0633537 0.794622 0)
(0.206602 1.28155 0)
(0.369828 1.21589 0)
(0.486634 0.837448 0)
(0.527889 0.426911 0)
(0.672959 -0.372639 0)
(0.943415 -1.47754 0)
(0.994368 -2.05122 0)
(0.962494 -2.17462 0)
(0.927276 -2.19359 0)
(0.91326 -2.18481 0)
(0.918047 -2.17095 0)
(0.936789 -2.15654 0)
(0.966697 -2.14236 0)
(1.00507 -2.12912 0)
(1.05034 -2.11756 0)
(1.10146 -2.10837 0)
(1.15768 -2.10213 0)
(1.21838 -2.09928 0)
(1.2831 -2.10017 0)
(1.35134 -2.10507 0)
(1.42318 -2.11423 0)
(1.49762 -2.12782 0)
(1.57557 -2.14613 0)
(1.65737 -2.16925 0)
(0.0222713 0.674213 0)
(0.122772 1.18389 0)
(0.237215 1.14224 0)
(0.335793 0.788054 0)
(0.293018 0.451356 0)
(0.591624 -0.718165 0)
(0.849857 -1.68253 0)
(0.914099 -2.06224 0)
(0.905053 -2.15542 0)
(0.897085 -2.18288 0)
(0.89977 -2.18998 0)
(0.913564 -2.18953 0)
(0.937305 -2.18522 0)
(0.968682 -2.17904 0)
(1.00682 -2.17237 0)
(1.05084 -2.16639 0)
(1.10001 -2.16205 0)
(1.15379 -2.16012 0)
(1.21172 -2.1612 0)
(1.27338 -2.16571 0)
(1.33843 -2.17404 0)
(1.40621 -2.18645 0)
(1.47746 -2.20326 0)
(1.5514 -2.22464 0)
(1.62806 -2.25104 0)
(-0.0245162 0.63664 0)
(0.021992 1.13567 0)
(0.0712712 1.09771 0)
(0.128777 0.794063 0)
(0.0748306 0.197387 0)
(0.531971 -1.16823 0)
(0.750162 -1.85991 0)
(0.814443 -2.08907 0)
(0.838359 -2.16432 0)
(0.856843 -2.1947 0)
(0.877001 -2.20916 0)
(0.901208 -2.2156 0)
(0.930007 -2.2176 0)
(0.964123 -2.21704 0)
(1.00305 -2.21542 0)
(1.04652 -2.21399 0)
(1.09428 -2.2138 0)
(1.14604 -2.21569 0)
(1.20149 -2.22031 0)
(1.26027 -2.22816 0)
(1.32203 -2.23962 0)
(1.38681 -2.25502 0)
(1.45361 -2.27469 0)
(1.52335 -2.29901 0)
(1.59627 -2.32821 0)
(-0.0656698 0.680671 0)
(-0.0701357 1.14312 0)
(-0.0955888 1.13098 0)
(-0.125035 0.860018 0)
(0.117561 -0.417427 0)
(0.481808 -1.55439 0)
(0.647298 -1.99828 0)
(0.727109 -2.14529 0)
(0.778513 -2.20056 0)
(0.81781 -2.2264 0)
(0.851419 -2.24058 0)
(0.88413 -2.24905 0)
(0.918609 -2.254 0)
(0.955304 -2.25684 0)
(0.995102 -2.25873 0)
(1.0383 -2.26078 0)
(1.08491 -2.26398 0)
(1.13486 -2.26913 0)
(1.18799 -2.27685 0)
(1.24405 -2.28764 0)
(1.30282 -2.30188 0)
(1.36363 -2.31998 0)
(1.42725 -2.34226 0)
(1.49288 -2.36902 0)
(1.56051 -2.40081 0)
(-0.0810883 0.781635 0)
(-0.145991 1.21153 0)
(-0.250396 1.29906 0)
(-0.325547 0.896212 0)
(0.14266 -0.834356 0)
(0.41919 -1.82164 0)
(0.569752 -2.12453 0)
(0.665643 -2.22216 0)
(0.733392 -2.25665 0)
(0.784835 -2.27184 0)
(0.827935 -2.28122 0)
(0.867167 -2.28824 0)
(0.905017 -2.29377 0)