/*--------------------------------*- C++ -*----------------------------------*\
  =========                 |
  \\      /  F ield         | OpenFOAM: The Open Source CFD Toolbox
   \\    /   O peration     | Website:  https://openfoam.org
    \\  /    A nd           | Version:  13
     \\/     M anipulation  |
\*---------------------------------------------------------------------------*/
FoamFile
{
    format      ascii;
    class       volScalarField;
    location    "21";
    object      p;
}
// * * * * * * * * * * * * * * * * * * * * * * * * * * * * * * * * * * * * * //

dimensions      [0 2 -2 0 0 0 0];

internalField   nonuniform List<scalar> 
6440
(
145.477
145.474
145.466
145.451
145.433
145.41
145.381
145.346
145.307
145.258
145.196
145.115
145.014
144.897
144.776
144.667
144.585
144.537
144.52
144.525
144.543
144.568
144.593
144.612
144.62
145.476
145.471
145.466
145.457
145.441
145.412
145.375
145.334
145.289
145.235
145.164
145.073
144.959
144.826
144.688
144.564
144.474
144.429
144.425
144.447
144.482
144.52
144.556
144.585
144.595
145.517
145.511
145.498
145.474
145.431
145.38
145.333
145.293
145.253
145.199
145.122
145.018
144.888
144.739
144.588
144.458
144.37
144.334
144.341
144.373
144.414
144.454
144.491
144.52
144.528
145.58
145.569
145.536
145.47
145.391
145.331
145.297
145.273
145.24
145.182
145.088
144.96
144.806
144.642
144.488
144.367
144.295
144.271
144.283
144.315
144.353
144.392
144.426
144.452
144.456
145.615
145.593
145.527
145.432
145.355
145.322
145.31
145.29
145.244
145.161
145.044
144.898
144.736
144.571
144.424
144.315
144.259
144.247
144.26
144.288
144.32
144.353
144.382
144.403
144.403
145.612
145.573
145.489
145.397
145.351
145.344
145.329
145.285
145.207
145.097
144.964
144.819
144.67
144.526
144.399
144.306
144.257
144.248
144.261
144.284
144.311
144.337
144.359
144.375
144.375
145.574
145.519
145.434
145.367
145.345
145.329
145.282
145.201
145.097
144.977
144.851
144.727
144.608
144.499
144.401
144.325
144.28
144.268
144.28
144.301
144.321
144.339
144.354
144.364
144.363
145.488
145.427
145.352
145.304
145.28
145.231
145.148
145.046
144.936
144.829
144.729
144.636
144.551
144.473
144.403
144.345
144.308
144.296
144.304
144.324
144.341
144.352
144.358
144.362
144.359
145.35
145.292
145.224
145.179
145.139
145.065
144.969
144.868
144.774
144.692
144.618
144.551
144.488
144.428
144.374
144.331
144.306
144.303
144.319
144.341
144.357
144.365
144.365
144.363
144.358
145.179
145.128
145.062
145.012
144.961
144.886
144.797
144.713
144.643
144.579
144.519
144.46
144.402
144.345
144.294
144.255
144.236
144.245
144.279
144.323
144.354
144.368
144.368
144.359
144.35
145.009
144.967
144.901
144.846
144.79
144.726
144.655
144.591
144.533
144.474
144.413
144.348
144.281
144.215
144.155
144.108
144.085
144.097
144.148
144.221
144.29
144.34
144.363
144.349
144.332
144.863
144.828
144.768
144.704
144.644
144.592
144.541
144.489
144.43
144.362
144.289
144.209
144.122
144.034
143.955
143.893
143.858
143.863
143.925
144.025
144.133
144.244
144.332
144.332
144.303
144.75
144.723
144.665
144.589
144.524
144.482
144.446
144.397
144.325
144.241
144.141
144.032
143.917
143.803
143.702
143.623
143.576
143.574
143.636
143.756
143.902
144.075
144.253
144.308
144.26
144.674
144.653
144.589
144.499
144.429
144.389
144.361
144.306
144.219
144.097
143.957
143.812
143.664
143.524
143.405
143.315
143.265
143.265
143.331
143.469
143.651
143.881
144.149
144.278
144.211
144.636
144.613
144.539
144.439
144.359
144.314
144.282
144.21
144.092
143.918
143.734
143.548
143.369
143.212
143.087
143
142.958
142.971
143.054
143.216
143.452
143.746
144.087
144.286
144.158
144.615
144.592
144.512
144.401
144.31
144.257
144.2
144.097
143.925
143.703
143.479
143.257
143.055
142.893
142.78
142.711
142.691
142.727
142.835
143.028
143.31
143.674
144.085
144.322
144.068
144.598
144.575
144.488
144.37
144.274
144.207
144.107
143.957
143.728
143.471
143.213
142.963
142.75
142.596
142.506
142.465
142.474
142.539
142.67
142.884
143.191
143.584
143.997
144.21
143.822
144.589
144.558
144.46
144.339
144.239
144.147
144.002
143.796
143.526
143.242
142.956
142.689
142.475
142.339
142.273
142.259
142.298
142.394
142.548
142.77
143.065
143.406
143.702
143.704
143.157
144.587
144.547
144.438
144.314
144.204
144.08
143.894
143.643
143.347
143.039
142.731
142.454
142.245
142.122
142.071
142.077
142.148
142.282
142.474
142.72
143.006
143.281
143.385
142.954
142.042
144.589
144.546
144.43
144.301
144.176
144.017
143.794
143.511
143.197
142.866
142.539
142.249
142.044
141.936
141.901
141.925
142.028
142.214
142.464
142.765
143.102
143.4
143.455
142.815
141.579
144.572
144.529
144.418
144.293
144.157
143.977
143.733
143.443
143.124
142.783
142.445
142.148
141.935
141.831
141.809
141.85
141.981
142.21
142.515
142.88
143.304
143.736
144.035
144.069
144.535
144.541
144.502
144.421
144.312
144.173
143.983
143.734
143.448
143.131
142.787
142.44
142.125
141.894
141.791
141.785
141.836
141.977
142.223
142.553
142.939
143.381
143.862
144.323
144.9
146.046
144.516
144.495
144.443
144.353
144.217
144.028
143.789
143.514
143.211
142.876
142.526
142.202
141.951
141.834
141.836
141.908
142.062
142.311
142.645
143.033
143.469
143.955
144.464
145.058
145.908
144.518
144.52
144.489
144.413
144.286
144.108
143.881
143.624
143.344
143.033
142.704
142.391
142.141
142.005
141.991
142.068
142.222
142.458
142.771
143.136
143.545
144.007
144.504
145.056
145.707
144.56
144.576
144.561
144.494
144.376
144.209
143.999
143.765
143.516
143.244
142.951
142.672
142.439
142.294
142.262
142.325
142.463
142.67
142.943
143.263
143.626
144.038
144.481
144.947
145.455
144.633
144.654
144.648
144.589
144.477
144.322
144.131
143.922
143.706
143.477
143.236
143.001
142.799
142.664
142.619
142.657
142.76
142.921
143.141
143.405
143.709
144.059
144.435
144.823
145.237
144.709
144.734
144.734
144.683
144.579
144.435
144.264
144.082
143.898
143.712
143.523
143.339
143.179
143.064
143.011
143.019
143.077
143.188
143.351
143.556
143.799
144.083
144.39
144.706
145.049
144.774
144.795
144.802
144.769
144.676
144.544
144.392
144.236
144.085
143.94
143.799
143.665
143.545
143.451
143.391
143.369
143.387
143.452
143.563
143.711
143.895
144.116
144.356
144.612
144.897
144.829
144.842
144.861
144.848
144.772
144.652
144.518
144.387
144.268
144.161
144.061
143.967
143.879
143.8
143.735
143.692
143.681
143.708
143.771
143.867
143.998
144.16
144.342
144.544
144.777
144.877
144.884
144.92
144.922
144.866
144.761
144.644
144.536
144.447
144.374
144.308
144.245
144.179
144.11
144.045
143.991
143.96
143.953
143.974
144.024
144.106
144.216
144.345
144.5
144.679
144.916
144.927
144.965
144.98
144.948
144.864
144.766
144.682
144.62
144.575
144.539
144.499
144.452
144.394
144.331
144.27
144.22
144.185
144.17
144.181
144.221
144.282
144.365
144.472
144.594
144.945
144.961
144.995
145.019
144.998
144.939
144.869
144.813
144.78
144.765
144.755
144.74
144.709
144.663
144.602
144.533
144.465
144.405
144.361
144.339
144.339
144.357
144.396
144.456
144.526
144.97
144.982
145.004
145.016
145
144.962
144.929
144.918
144.926
144.947
144.969
144.977
144.964
144.926
144.865
144.785
144.699
144.617
144.548
144.495
144.457
144.434
144.433
144.448
144.473
144.989
144.985
144.977
144.962
144.944
144.919
144.928
144.982
145.053
145.125
145.188
145.226
145.228
145.196
145.129
145.034
144.929
144.825
144.728
144.643
144.567
144.507
144.471
144.443
144.42
144.987
144.956
144.91
144.869
144.844
144.836
144.874
144.994
145.158
145.309
145.426
145.492
145.513
145.481
145.398
145.281
145.149
145.015
144.887
144.768
144.659
144.57
144.498
144.424
144.363
144.964
144.897
144.814
144.759
144.736
144.741
144.807
144.98
145.238
145.488
145.668
145.771
145.806
145.762
145.645
145.491
145.327
145.166
145.011
144.864
144.728
144.61
144.505
144.406
144.31
144.96
144.855
144.739
144.667
144.646
144.666
144.756
144.972
145.308
145.642
145.882
146.007
146.046
145.966
145.807
145.625
145.443
145.267
145.094
144.925
144.777
144.637
144.498
144.372
144.249
145.028
144.883
144.741
144.657
144.628
144.638
144.735
144.99
145.377
145.747
146.007
146.134
146.14
146.021
145.859
145.683
145.501
145.317
145.13
144.96
144.797
144.63
144.478
144.334
144.188
145.187
145.018
144.851
144.743
144.676
144.667
144.764
145.039
145.433
145.79
146.005
146.102
146.071
145.975
145.842
145.68
145.501
145.314
145.133
144.957
144.779
144.611
144.45
144.289
144.124
145.434
145.271
145.087
144.95
144.858
144.834
144.922
145.162
145.48
145.743
145.898
145.968
145.948
145.881
145.769
145.62
145.451
145.276
145.1
144.923
144.751
144.581
144.411
144.238
144.058
145.68
145.545
145.367
145.217
145.121
145.106
145.168
145.338
145.546
145.688
145.778
145.811
145.797
145.75
145.656
145.525
145.375
145.215
145.049
144.88
144.711
144.539
144.363
144.182
143.992
145.785
145.684
145.527
145.367
145.255
145.228
145.277
145.418
145.572
145.661
145.69
145.678
145.656
145.616
145.536
145.423
145.29
145.144
144.988
144.827
144.66
144.489
144.31
144.124
143.927
145.765
145.681
145.528
145.343
145.193
145.15
145.232
145.387
145.536
145.615
145.615
145.58
145.548
145.505
145.43
145.328
145.206
145.069
144.923
144.768
144.605
144.434
144.255
144.066
143.865
145.695
145.615
145.473
145.291
145.148
145.122
145.202
145.363
145.507
145.575
145.564
145.52
145.476
145.42
145.342
145.243
145.127
144.998
144.858
144.708
144.549
144.38
144.2
144.01
143.807
145.648
145.583
145.468
145.327
145.214
145.199
145.302
145.439
145.531
145.562
145.542
145.493
145.431
145.358
145.273
145.173
145.059
144.934
144.798
144.651
144.494
144.326
144.148
143.957
143.753
145.646
145.61
145.537
145.459
145.412
145.443
145.524
145.571
145.587
145.581
145.552
145.487
145.402
145.314
145.22
145.116
145.002
144.877
144.743
144.598
144.443
144.276
144.099
143.909
143.705
145.65
145.648
145.64
145.642
145.67
145.718
145.726
145.684
145.646
145.615
145.568
145.48
145.377
145.278
145.178
145.069
144.952
144.827
144.693
144.549
144.395
144.23
144.054
143.865
143.663
145.643
145.645
145.667
145.721
145.784
145.819
145.787
145.724
145.672
145.632
145.56
145.457
145.347
145.245
145.139
145.026
144.908
144.782
144.648
144.505
144.352
144.189
144.014
143.828
143.627
145.628
145.611
145.605
145.638
145.693
145.735
145.731
145.697
145.658
145.607
145.52
145.417
145.313
145.208
145.099
144.986
144.867
144.741
144.607
144.465
144.313
144.152
143.979
143.795
143.598
145.574
145.511
145.448
145.458
145.518
145.587
145.629
145.631
145.608
145.549
145.465
145.369
145.268
145.166
145.059
144.946
144.828
144.703
144.57
144.429
144.279
144.119
143.949
143.768
143.574
145.482
145.391
145.3
145.292
145.352
145.44
145.516
145.548
145.534
145.481
145.403
145.313
145.222
145.123
145.019
144.908
144.791
144.667
144.535
144.396
144.248
144.09
143.923
143.745
143.556
145.401
145.309
145.219
145.192
145.235
145.326
145.419
145.463
145.452
145.41
145.345
145.263
145.175
145.081
144.98
144.872
144.756
144.634
144.504
144.366
144.22
144.066
143.902
143.728
143.543
145.367
145.29
145.216
145.175
145.193
145.268
145.356
145.393
145.386
145.347
145.286
145.214
145.131
145.041
144.943
144.837
144.723
144.603
144.475
144.339
144.196
144.045
143.884
143.714
143.535
145.394
145.337
145.281
145.242
145.237
145.276
145.33
145.349
145.335
145.295
145.241
145.172
145.093
145.005
144.908
144.804
144.693
144.574
144.449
144.316
144.175
144.027
143.87
143.705
143.531
145.467
145.433
145.394
145.367
145.338
145.332
145.335
145.33
145.306
145.263
145.206
145.137
145.059
144.972
144.877
144.774
144.665
144.548
144.425
144.295
144.157
144.013
143.86
143.699
143.53
145.563
145.547
145.519
145.504
145.455
145.404
145.362
145.332
145.292
145.241
145.18
145.109
145.03
144.943
144.848
144.747
144.639
144.525
144.404
144.277
144.142
144.001
143.853
143.697
143.534
145.647
145.648
145.631
145.625
145.557
145.468
145.397
145.346
145.289
145.227
145.16
145.086
145.005
144.917
144.823
144.723
144.617
144.504
144.386
144.261
144.13
143.992
143.849
143.697
143.54
145.703
145.716
145.719
145.711
145.629
145.514
145.43
145.358
145.288
145.217
145.145
145.066
144.983
144.895
144.801
144.702
144.597
144.486
144.37
144.248
144.12
143.986
143.846
143.701
143.548
145.728
145.746
145.772
145.756
145.663
145.535
145.451
145.365
145.285
145.209
145.13
145.05
144.964
144.875
144.781
144.682
144.579
144.47
144.356
144.237
144.112
143.982
143.847
143.705
143.559
145.733
145.747
145.782
145.761
145.665
145.538
145.453
145.364
145.28
145.199
145.118
145.034
144.947
144.857
144.763
144.665
144.563
144.456
144.344
144.227
144.106
143.98
143.849
143.713
143.571
145.728
145.736
145.759
145.74
145.644
145.536
145.446
145.357
145.272
145.188
145.104
145.019
144.931
144.841
144.747
144.65
144.548
144.443
144.334
144.22
144.102
143.979
143.852
143.721
143.585
145.719
145.727
145.735
145.71
145.613
145.527
145.435
145.345
145.26
145.175
145.09
145.003
144.916
144.825
144.732
144.635
144.535
144.432
144.325
144.214
144.099
143.98
143.857
143.73
143.6
145.708
145.72
145.72
145.682
145.579
145.504
145.418
145.33
145.245
145.16
145.075
144.988
144.9
144.81
144.717
144.622
144.523
144.422
144.317
144.209
144.097
143.982
143.863
143.741
143.615
145.696
145.71
145.707
145.647
145.554
145.481
145.398
145.313
145.229
145.144
145.059
144.973
144.885
144.795
144.703
144.609
144.512
144.413
144.31
144.205
144.096
143.984
143.87
143.752
143.631
145.685
145.696
145.691
145.616
145.539
145.459
145.377
145.295
145.211
145.127
145.042
144.957
144.87
144.781
144.69
144.597
144.502
144.404
144.304
144.201
144.096
143.988
143.877
143.764
143.648
145.678
145.686
145.675
145.584
145.516
145.436
145.355
145.275
145.192
145.109
145.025
144.94
144.854
144.766
144.676
144.585
144.492
144.396
144.298
144.198
144.096
143.991
143.885
143.776
143.664
145.673
145.679
145.65
145.555
145.489
145.412
145.332
145.253
145.172
145.09
145.007
144.923
144.837
144.751
144.663
144.573
144.482
144.388
144.293
144.196
144.097
143.995
143.892
143.787
143.681
145.663
145.671
145.62
145.533
145.463
145.388
145.309
145.231
145.151
145.07
144.988
144.905
144.821
144.736
144.649
144.561
144.472
144.381
144.288
144.194
144.097
144
143.9
143.799
143.697
145.647
145.658
145.589
145.518
145.439
145.363
145.286
145.207
145.129
145.049
144.968
144.886
144.803
144.72
144.635
144.549
144.462
144.373
144.283
144.191
144.098
144.004
143.908
143.811
143.713
145.632
145.645
145.558
145.497
145.416
145.337
145.261
145.183
145.105
145.026
144.947
144.866
144.785
144.703
144.62
144.536
144.451
144.365
144.278
144.189
144.099
144.008
143.915
143.822
143.728
145.626
145.632
145.526
145.469
145.389
145.31
145.234
145.157
145.08
145.003
144.925
144.846
144.766
144.686
144.605
144.524
144.441
144.357
144.272
144.186
144.099
144.011
143.922
143.833
143.743
145.626
145.615
145.499
145.439
145.361
145.282
145.206
145.13
145.054
144.978
144.902
144.824
144.747
144.669
144.59
144.51
144.43
144.349
144.266
144.183
144.099
144.015
143.929
143.843
143.757
145.621
145.592
145.477
145.408
145.33
145.251
145.176
145.101
145.027
144.952
144.877
144.802
144.727
144.651
144.574
144.497
144.419
144.34
144.261
144.18
144.099
144.018
143.935
143.853
143.77
145.602
145.557
145.45
145.373
145.295
145.218
145.144
145.071
144.998
144.925
144.852
144.779
144.706
144.632
144.558
144.483
144.407
144.331
144.254
144.177
144.099
144.02
143.941
143.862
143.783
145.568
145.509
145.414
145.332
145.256
145.181
145.109
145.038
144.967
144.897
144.826
144.755
144.684
144.613
144.541
144.469
144.396
144.322
144.248
144.173
144.098
144.023
143.947
143.871
143.795
145.517
145.448
145.365
145.285
145.212
145.141
145.071
145.003
144.935
144.867
144.799
144.731
144.662
144.593
144.524
144.454
144.384
144.313
144.241
144.169
144.097
144.024
143.952
143.879
143.806
145.448
145.376
145.307
145.233
145.165
145.097
145.031
144.966
144.901
144.836
144.771
144.706
144.64
144.573
144.507
144.439
144.371
144.303
144.234
144.165
144.096
144.026
143.956
143.886
143.816
145.366
145.3
145.242
145.176
145.114
145.051
144.99
144.928
144.867
144.805
144.743
144.68
144.617
144.553
144.489
144.424
144.359
144.293
144.227
144.161
144.094
144.027
143.96
143.893
143.826
145.28
145.225
145.176
145.118
145.062
145.004
144.947
144.889
144.831
144.773
144.714
144.654
144.593
144.532
144.471
144.409
144.346
144.283
144.22
144.156
144.092
144.027
143.963
143.899
143.835
145.197
145.152
145.11
145.059
145.009
144.957
144.904
144.85
144.796
144.741
144.685
144.628
144.57
144.512
144.453
144.394
144.333
144.273
144.212
144.151
144.089
144.028
143.966
143.904
143.843
145.119
145.082
145.047
145.002
144.958
144.91
144.862
144.812
144.761
144.709
144.656
144.602
144.547
144.492
144.435
144.378
144.321
144.263
144.204
144.146
144.087
144.027
143.968
143.909
143.85
145.046
145.016
144.987
144.948
144.908
144.865
144.821
144.774
144.727
144.678
144.628
144.577
144.525
144.472
144.418
144.363
144.308
144.253
144.197
144.14
144.084
144.027
143.97
143.914
143.857
144.98
144.955
144.93
144.896
144.861
144.822
144.781
144.738
144.694
144.648
144.601
144.553
144.503
144.453
144.401
144.349
144.296
144.243
144.189
144.135
144.081
144.026
143.972
143.918
143.864
144.92
144.899
144.878
144.848
144.817
144.781
144.744
144.704
144.663
144.62
144.575
144.529
144.482
144.434
144.385
144.335
144.285
144.234
144.182
144.13
144.078
144.026
143.974
143.921
143.87
144.866
144.848
144.83
144.803
144.775
144.743
144.708
144.672
144.633
144.593
144.551
144.507
144.462
144.417
144.37
144.322
144.274
144.225
144.175
144.125
144.075
144.025
143.975
143.925
143.875
144.817
144.802
144.786
144.762
144.737
144.707
144.675
144.641
144.605
144.567
144.527
144.486
144.444
144.4
144.355
144.309
144.263
144.216
144.168
144.121
144.072
144.024
143.976
143.928
143.88
144.773
144.76
144.746
144.724
144.701
144.674
144.645
144.613
144.579
144.543
144.505
144.466
144.426
144.384
144.341
144.297
144.253
144.208
144.162
144.116
144.069
144.023
143.976
143.93
143.884
144.734
144.722
144.71
144.69
144.669
144.643
144.616
144.586
144.554
144.52
144.484
144.447
144.408
144.369
144.327
144.286
144.243
144.199
144.155
144.111
144.066
144.021
143.976
143.932
143.887
144.7
144.689
144.677
144.659
144.639
144.615
144.59
144.561
144.531
144.499
144.465
144.429
144.392
144.354
144.315
144.274
144.233
144.191
144.149
144.106
144.063
144.02
143.976
143.933
143.89
144.669
144.659
144.649
144.632
144.614
144.591
144.567
144.54
144.511
144.48
144.447
144.413
144.378
144.341
144.303
144.264
144.224
144.184
144.143
144.102
144.06
144.018
143.976
143.934
143.893
144.643
144.634
144.625
144.608
144.591
144.57
144.546
144.521
144.493
144.463
144.432
144.399
144.365
144.329
144.293
144.255
144.217
144.177
144.138
144.098
144.057
144.017
143.976
143.935
143.895
144.622
144.613
144.605
144.589
144.573
144.552
144.53
144.505
144.478
144.449
144.419
144.387
144.354
144.319
144.284
144.247
144.21
144.172
144.133
144.094
144.055
144.015
143.976
143.937
143.897
144.604
144.596
144.589
144.573
144.558
144.537
144.515
144.491
144.465
144.437
144.408
144.377
144.344
144.31
144.276
144.24
144.204
144.167
144.129
144.091
144.053
144.014
143.976
143.938
143.9
144.592
144.584
144.577
144.561
144.545
144.525
144.504
144.48
144.454
144.427
144.398
144.368
144.336
144.303
144.269
144.234
144.199
144.162
144.126
144.089
144.051
144.014
143.976
143.938
143.901
144.584
144.575
144.568
144.551
144.536
144.516
144.494
144.47
144.445
144.418
144.389
144.359
144.328
144.296
144.263
144.229
144.194
144.158
144.122
144.086
144.049
144.012
143.976
143.939
143.902
144.58
144.57
144.562
144.544
144.528
144.508
144.486
144.462
144.437
144.41
144.382
144.352
144.322
144.29
144.257
144.224
144.189
144.155
144.119
144.083
144.047
144.011
143.975
143.939
143.903
144.578
144.568
144.56
144.541
144.523
144.502
144.479
144.455
144.43
144.403
144.375
144.346
144.316
144.284
144.252
144.219
144.185
144.151
144.116
144.081
144.045
144.01
143.974
143.938
143.903
144.585
144.57
144.563
144.542
144.521
144.499
144.475
144.45
144.425
144.398
144.37
144.341
144.311
144.28
144.248
144.215
144.182
144.148
144.114
144.079
144.044
144.008
143.973
143.938
143.903
144.623
144.588
144.572
144.547
144.522
144.497
144.472
144.447
144.421
144.394
144.366
144.338
144.308
144.277
144.245
144.213
144.18
144.146
144.112
144.077
144.042
144.007
143.972
143.938
143.903
144.698
144.619
144.579
144.549
144.522
144.497
144.472
144.446
144.42
144.393
144.365
144.336
144.307
144.276
144.244
144.212
144.179
144.145
144.111
144.077
144.042
144.007
143.972
143.937
143.903
148.599
148.6
148.6
148.598
148.595
148.593
148.592
148.591
148.589
148.586
148.582
148.575
148.566
148.554
148.541
148.526
148.506
148.478
148.445
148.416
148.403
148.411
148.427
148.437
148.438
148.595
148.594
148.594
148.592
148.592
148.593
148.595
148.597
148.596
148.592
148.584
148.573
148.56
148.547
148.533
148.517
148.497
148.469
148.438
148.41
148.396
148.399
148.416
148.431
148.434
148.594
148.589
148.585
148.583
148.584
148.586
148.589
148.587
148.579
148.564
148.545
148.526
148.508
148.494
148.483
148.473
148.461
148.445
148.424
148.404
148.395
148.401
148.415
148.425
148.428
148.598
148.591
148.585
148.582
148.58
148.579
148.573
148.559
148.538
148.511
148.482
148.453
148.427
148.407
148.395
148.39
148.389
148.39
148.392
148.395
148.402
148.414
148.425
148.43
148.428
148.606
148.6
148.594
148.59
148.585
148.577
148.559
148.531
148.496
148.456
148.414
148.372
148.334
148.304
148.284
148.275
148.278
148.292
148.314
148.344
148.379
148.412
148.433
148.436
148.432
148.618
148.612
148.608
148.604
148.597
148.582
148.554
148.513
148.464
148.41
148.353
148.296
148.243
148.197
148.166
148.15
148.152
148.169
148.201
148.246
148.303
148.366
148.417
148.434
148.429
148.629
148.624
148.621
148.619
148.612
148.594
148.56
148.511
148.451
148.384
148.312
148.239
148.169
148.106
148.061
148.037
148.034
148.052
148.087
148.138
148.202
148.28
148.361
148.415
148.421
148.639
148.634
148.632
148.632
148.627
148.611
148.579
148.528
148.462
148.384
148.3
148.214
148.129
148.052
147.996
147.967
147.962
147.978
148.013
148.061
148.12
148.193
148.284
148.371
148.404
148.648
148.643
148.641
148.642
148.641
148.633
148.607
148.561
148.495
148.413
148.322
148.227
148.133
148.048
147.985
147.953
147.947
147.96
147.993
148.039
148.091
148.15
148.227
148.318
148.374
148.657
148.652
148.648
148.65
148.654
148.654
148.641
148.606
148.549
148.47
148.378
148.279
148.181
148.091
148.02
147.979
147.969
147.981
148.011
148.057
148.109
148.161
148.225
148.301
148.358
148.667
148.659
148.655
148.658
148.666
148.674
148.674
148.655
148.611
148.541
148.453
148.358
148.26
148.17
148.095
148.044
148.023
148.028
148.055
148.1
148.155
148.211
148.27
148.34
148.39
148.679
148.667
148.659
148.664
148.675
148.686
148.694
148.692
148.667
148.611
148.53
148.437
148.342
148.251
148.174
148.12
148.092
148.093
148.119
148.165
148.223
148.285
148.349
148.418
148.472
148.687
148.673
148.664
148.666
148.676
148.688
148.696
148.7
148.688
148.654
148.591
148.508
148.416
148.327
148.251
148.196
148.169
148.171
148.199
148.246
148.306
148.373
148.445
148.518
148.582
148.689
148.677
148.666
148.664
148.671
148.681
148.687
148.687
148.677
148.655
148.615
148.552
148.474
148.392
148.323
148.273
148.248
148.252
148.282
148.33
148.392
148.463
148.54
148.619
148.693
148.69
148.683
148.672
148.666
148.666
148.67
148.67
148.665
148.651
148.63
148.6
148.556
148.497
148.43
148.372
148.332
148.313
148.321
148.352
148.403
148.467
148.539
148.616
148.697
148.774
148.692
148.692
148.682
148.674
148.667
148.657
148.646
148.634
148.619
148.598
148.572
148.536
148.489
148.434
148.387
148.355
148.344
148.358
148.396
148.452
148.52
148.592
148.665
148.737
148.801
148.692
148.697
148.685
148.678
148.665
148.644
148.622
148.6
148.577
148.555
148.531
148.503
148.465
148.419
148.376
148.346
148.337
148.356
148.402
148.465
148.538
148.616
148.688
148.745
148.783
148.686
148.695
148.676
148.672
148.652
148.623
148.594
148.565
148.534
148.503
148.475
148.448
148.418
148.383
148.345
148.315
148.305
148.322
148.369
148.439
148.519
148.602
148.679
148.737
148.759
148.616
148.671
148.646
148.641
148.613
148.579
148.547
148.515
148.48
148.443
148.408
148.378
148.351
148.322
148.29
148.263
148.249
148.262
148.305
148.373
148.458
148.548
148.633
148.702
148.733
148.399
148.576
148.549
148.54
148.517
148.488
148.459
148.429
148.395
148.359
148.323
148.291
148.264
148.238
148.212
148.186
148.17
148.174
148.206
148.266
148.348
148.442
148.534
148.614
148.655
147.483
148.084
148.267
148.333
148.353
148.35
148.335
148.314
148.285
148.251
148.215
148.18
148.151
148.126
148.103
148.083
148.066
148.06
148.076
148.118
148.186
148.273
148.365
148.444
148.481
147.302
147.652
147.914
148.061
148.131
148.158
148.16
148.148
148.125
148.094
148.058
148.021
147.985
147.954
147.927
147.903
147.885
147.875
147.88
147.905
147.955
148.028
148.108
148.173
148.194
146.762
147.222
147.529
147.735
147.857
147.919
147.943
147.943
147.926
147.897
147.861
147.819
147.775
147.73
147.687
147.647
147.612
147.586
147.572
147.576
147.602
147.653
147.716
147.765
147.749
146.338
146.805
147.145
147.388
147.547
147.637
147.68
147.69
147.678
147.65
147.609
147.559
147.501
147.438
147.371
147.303
147.237
147.175
147.123
147.087
147.074
147.089
147.126
147.166
147.162
145.97
146.419
146.772
147.034
147.212
147.32
147.376
147.393
147.383
147.351
147.303
147.239
147.163
147.074
146.974
146.866
146.75
146.632
146.514
146.405
146.316
146.257
146.228
146.222
146.175
145.67
146.079
146.42
146.68
146.862
146.976
147.035
147.054
147.041
147.002
146.94
146.858
146.756
146.632
146.488
146.324
146.139
145.935
145.717
145.489
145.264
145.056
144.878
144.746
144.673
145.418
145.779
146.092
146.333
146.504
146.611
146.666
146.68
146.658
146.605
146.525
146.415
146.278
146.109
145.906
145.667
145.388
145.065
144.697
144.284
143.826
143.332
142.81
142.289
141.731
145.208
145.515
145.785
145.996
146.144
146.235
146.277
146.277
146.239
146.166
146.058
145.914
145.731
145.504
145.226
144.89
144.487
144.002
143.421
142.726
141.895
140.909
139.726
138.454
136.972
145.027
145.278
145.499
145.669
145.786
145.853
145.874
145.853
145.792
145.691
145.549
145.36
145.121
144.822
144.452
143.996
143.435
142.739
141.866
140.77
139.354
137.521
134.943
131.627
125.638
144.868
145.061
145.231
145.356
145.436
145.472
145.466
145.418
145.327
145.19
145.004
144.763
144.456
144.073
143.593
142.995
142.241
141.285
140.044
138.411
136.165
133.108
128.194
122.371
103.542
144.728
144.868
144.981
145.058
145.098
145.099
145.059
144.977
144.849
144.67
144.435
144.131
143.749
143.27
142.667
141.906
140.934
139.679
138.009
135.741
132.411
127.547
117.925
101.854
43.0579
144.612
144.694
144.749
144.778
144.776
144.738
144.661
144.54
144.37
144.143
143.851
143.481
143.016
142.432
141.697
140.764
139.564
137.995
135.891
132.995
128.74
122.4
111.431
93.692
63.9384
144.51
144.531
144.534
144.517
144.472
144.393
144.275
144.112
143.896
143.618
143.267
142.826
142.275
141.584
140.715
139.609
138.185
136.323
133.836
130.449
125.689
118.878
109.063
94.5026
77.032
144.405
144.377
144.336
144.275
144.188
144.068
143.908
143.701
143.437
143.107
142.694
142.183
141.546
140.751
139.751
138.482
136.852
134.73
131.929
128.17
123.063
116.04
106.433
93.0379
75.9845
144.306
144.237
144.153
144.052
143.924
143.763
143.562
143.312
143.002
142.619
142.149
141.567
140.849
139.956
138.836
137.419
135.608
133.265
130.198
126.144
120.735
113.476
103.788
90.8922
74.6423
144.212
144.106
143.986
143.847
143.681
143.483
143.242
142.95
142.596
142.165
141.638
140.995
140.203
139.222
137.997
136.454
134.489
131.963
128.683
124.383
118.721
111.241
101.444
88.7559
73.0318
144.121
143.984
143.832
143.659
143.46
143.227
142.95
142.621
142.226
141.751
141.176
140.477
139.622
138.568
137.258
135.614
133.529
130.862
127.412
122.919
117.028
109.282
99.1788
86.0978
69.9723
144.035
143.87
143.69
143.489
143.261
142.997
142.689
142.326
141.896
141.384
140.768
140.025
139.121
138.012
136.638
134.923
132.755
129.99
126.423
121.783
115.694
107.657
97.1065
83.1222
65.7537
143.95
143.764
143.561
143.337
143.083
142.793
142.459
142.069
141.61
141.068
140.422
139.646
138.708
137.564
136.154
134.4
132.191
129.38
125.745
121.013
114.721
106.368
95.1546
79.7496
60.3568
143.869
143.666
143.445
143.2
142.927
142.616
142.26
141.849
141.369
140.806
140.139
139.345
138.39
137.233
135.816
134.062
131.863
129.07
125.453
120.711
114.239
105.516
92.8151
75.101
51.0052
143.791
143.575
143.34
143.08
142.791
142.465
142.094
141.667
141.174
140.599
139.923
139.123
138.17
137.022
135.628
133.916
131.786
129.099
125.631
121.083
114.782
106.073
91.8474
71.5972
34.0029
143.718
143.492
143.247
142.977
142.676
142.339
141.958
141.523
141.023
140.445
139.77
138.979
138.042
136.927
135.584
133.954
131.949
129.451
126.284
122.189
116.672
109.129
96.9244
79.1048
29.9194
143.65
143.418
143.166
142.888
142.581
142.238
141.852
141.415
140.915
140.341
139.678
138.906
138.002
136.936
135.669
134.15
132.312
130.066
127.284
123.794
119.326
113.553
105.686
96.0958
76.8143
143.589
143.353
143.097
142.815
142.505
142.16
141.774
141.339
140.846
140.285
139.64
138.898
138.038
137.035
135.86
134.472
132.824
130.855
128.484
125.612
122.113
117.844
112.612
106.433
98.7629
143.534
143.297
143.039
142.757
142.447
142.103
141.721
141.294
140.813
140.269
139.651
138.945
138.137
137.207
136.132
134.885
133.432
131.738
129.757
127.447
124.767
121.71
118.328
114.895
111.976
143.486
143.249
142.992
142.712
142.405
142.067
141.692
141.276
140.811
140.289
139.702
139.038
138.287
137.434
136.462
135.354
134.09
132.651
131.017
129.176
127.136
124.932
122.665
120.564
119.003
143.446
143.211
142.957
142.68
142.378
142.048
141.684
141.281
140.836
140.339
139.786
139.168
138.475
137.699
136.829
135.853
134.763
133.549
132.209
130.749
129.194
127.596
126.055
124.743
123.89
143.413
143.181
142.931
142.66
142.366
142.044
141.693
141.307
140.883
140.414
139.897
139.324
138.69
137.989
137.215
136.361
135.425
134.405
133.308
132.147
130.953
129.775
128.692
127.819
127.286
143.386
143.159
142.915
142.651
142.365
142.055
141.718
141.35
140.948
140.509
140.027
139.5
138.923
138.293