/*--------------------------------*- C++ -*----------------------------------*\
  =========                 |
  \\      /  F ield         | OpenFOAM: The Open Source CFD Toolbox
   \\    /   O peration     | Website:  https://openfoam.org
    \\  /    A nd           | Version:  13
     \\/     M anipulation  |
\*---------------------------------------------------------------------------*/
FoamFile
{
    format      ascii;
    class       volScalarField;
    location    "21";
    object      p;
}
// * * * * * * * * * * * * * * * * * * * * * * * * * * * * * * * * * * * * * //

dimensions      [0 2 -2 0 0 0 0];

internalField   nonuniform List<scalar> 
6440
(
-0.000717668
-0.000717616
-0.000717596
-0.000717553
-0.000717402
-0.000717034
-0.000716313
-0.000715087
-0.000713225
-0.00071059
-0.000707078
-0.000702624
-0.00069722
-0.000690925
-0.000683858
-0.000676188
-0.000668128
-0.000659928
-0.000651813
-0.00064396
-0.000636456
-0.000629331
-0.000622795
-0.000616849
-0.000612004
-0.000718015
-0.000718112
-0.00071837
-0.000718759
-0.000719216
-0.000719641
-0.000719915
-0.000719901
-0.000719441
-0.000718366
-0.000716531
-0.000713788
-0.000710014
-0.000705119
-0.000699064
-0.000691862
-0.000683594
-0.00067438
-0.000664383
-0.000653789
-0.000642785
-0.00063156
-0.000620683
-0.000610797
-0.000602497
-0.00071792
-0.000718194
-0.000718775
-0.000719647
-0.000720763
-0.000722026
-0.000723321
-0.000724504
-0.000725408
-0.000725846
-0.000725614
-0.000724494
-0.000722278
-0.000718785
-0.000713846
-0.00070736
-0.000699287
-0.000689665
-0.000678608
-0.000666301
-0.00065299
-0.000638975
-0.000625035
-0.000612487
-0.000602444
-0.000716761
-0.000717194
-0.000718062
-0.000719355
-0.000721039
-0.000723006
-0.000725137
-0.000727283
-0.000729262
-0.000730867
-0.000731866
-0.000732009
-0.000731032
-0.000728657
-0.000724668
-0.000718893
-0.000711224
-0.00070165
-0.000690257
-0.000677219
-0.0006628
-0.000647324
-0.000631601
-0.0006173
-0.000605909
-0.000714195
-0.000714776
-0.000715902
-0.000717578
-0.000719768
-0.000722358
-0.000725223
-0.000728206
-0.000731114
-0.000733724
-0.000735782
-0.000737012
-0.000737121
-0.000735808
-0.000732759
-0.000727764
-0.000720689
-0.000711485
-0.000700209
-0.000687012
-0.00067214
-0.000655885
-0.000639011
-0.000623359
-0.000610749
-0.000710103
-0.000710828
-0.000712197
-0.000714233
-0.000716893
-0.000720071
-0.000723627
-0.000727395
-0.000731177
-0.000734736
-0.000737806
-0.000740094
-0.000741283
-0.00074105
-0.000739068
-0.000735004
-0.00072873
-0.000720144
-0.000709255
-0.000696217
-0.000681186
-0.000664411
-0.000646634
-0.000629821
-0.000616131
-0.000704479
-0.000705342
-0.000706941
-0.000709319
-0.000712429
-0.000716159
-0.000720377
-0.000724903
-0.000729533
-0.000734025
-0.000738105
-0.00074147
-0.000743792
-0.000744724
-0.000743919
-0.000741029
-0.000735762
-0.000728023
-0.00071775
-0.000704969
-0.000689902
-0.000672722
-0.000654103
-0.000636183
-0.000621461
-0.000697372
-0.000698363
-0.000700174
-0.000702871
-0.000706405
-0.000710658
-0.000715498
-0.00072076
-0.000726219
-0.000731635
-0.000736735
-0.00074121
-0.000744727
-0.000746925
-0.000747432
-0.000745876
-0.000741874
-0.000735188
-0.000725712
-0.000713405
-0.000698341
-0.000680774
-0.000661323
-0.000642278
-0.000626506
-0.000688862
-0.000689964
-0.000691965
-0.000694951
-0.000698872
-0.000703612
-0.000709041
-0.000714993
-0.000721258
-0.000727589
-0.000733711
-0.000739321
-0.000744084
-0.000747634
-0.000749576
-0.000749503
-0.000746999
-0.000741611
-0.000733177
-0.000721543
-0.000706642
-0.000688693
-0.000668427
-0.000648192
-0.000631323
-0.000679054
-0.000680246
-0.000682406
-0.00068564
-0.000689897
-0.000695072
-0.000701036
-0.000707629
-0.000714663
-0.00072188
-0.000729013
-0.000735766
-0.000741806
-0.000746768
-0.000750243
-0.000751788
-0.000750932
-0.000747175
-0.000740043
-0.000729324
-0.000714857
-0.00069667
-0.000675557
-0.000654128
-0.000636129
-0.000668076
-0.000669332
-0.000671611
-0.000675038
-0.000679567
-0.000685101
-0.000691526
-0.000698693
-0.000706425
-0.000714475
-0.000722585
-0.000730465
-0.000737791
-0.000744198
-0.000749275
-0.000752557
-0.000753523
-0.000751609
-0.000746171
-0.000736739
-0.000723026
-0.000704887
-0.000683022
-0.000660435
-0.000641266
-0.000656077
-0.000657366
-0.000659717
-0.000663269
-0.000667983
-0.000673779
-0.000680558
-0.000688191
-0.000696518
-0.000705313
-0.00071433
-0.000723293
-0.000731885
-0.000739748
-0.000746472
-0.000751583
-0.00075453
-0.00075468
-0.000751315
-0.00074362
-0.000731119
-0.000713487
-0.000691159
-0.000667428
-0.000647123
-0.000643226
-0.000644515
-0.000646881
-0.000650477
-0.000655274
-0.000661207
-0.000668199
-0.000676146
-0.000684915
-0.000694313
-0.000704117
-0.000714072
-0.000723876
-0.000733179
-0.000741574
-0.000748589
-0.000753659
-0.000756111
-0.000755139
-0.00074977
-0.000739105
-0.000722526
-0.000700255
-0.000675576
-0.000654286
-0.000629712
-0.000630964
-0.000633284
-0.000636834
-0.000641593
-0.000647516
-0.000654547
-0.00066261
-0.000671606
-0.000681399
-0.000691798
-0.000702582
-0.000713479
-0.000724159
-0.000734224
-0.000743202
-0.00075053
-0.000755523
-0.000757326
-0.000754854
-0.000746821
-0.000732178
-0.00071068
-0.000685622
-0.000663576
-0.000615743
-0.000616922
-0.000619131
-0.000622537
-0.000627129
-0.000632877
-0.000639747
-0.000647692
-0.000656649
-0.000666537
-0.000677241
-0.000688581
-0.000700345
-0.000712245
-0.000723911
-0.000734875
-0.00074459
-0.000752382
-0.000757386
-0.000758437
-0.000754015
-0.00074251
-0.000722964
-0.000698474
-0.000676106
-0.00060154
-0.00060261
-0.000604645
-0.000607809
-0.000612098
-0.000617496
-0.000623987
-0.000631549
-0.000640155
-0.000649772
-0.000660371
-0.000671859
-0.0006841
-0.000696887
-0.000709911
-0.000722734
-0.000734929
-0.000745831
-0.000754558
-0.000759913
-0.000760245
-0.000753437
-0.00073766
-0.000715304
-0.000693595
-0.000587335
-0.000588263
-0.000590064
-0.000592889
-0.000596739
-0.00060161
-0.000607495
-0.000614393
-0.000622304
-0.000631236
-0.000641225
-0.000652311
-0.000664444
-0.000677517
-0.000691347
-0.000705715
-0.000720258
-0.000734412
-0.000747366
-0.000757955
-0.00076447
-0.000764449
-0.000755138
-0.000737727
-0.000718753
-0.000573365
-0.000574125
-0.000575637
-0.000578029
-0.000581309
-0.000585487
-0.000590546
-0.000596499
-0.000603365
-0.000611197
-0.000620063
-0.000630072
-0.000641321
-0.00065387
-0.000667704
-0.000682751
-0.000698959
-0.000715997
-0.00073331
-0.000749954
-0.00076436
-0.000773949
-0.00077516
-0.000768062
-0.000756663
-0.000559888
-0.000560457
-0.000561634
-0.000563535
-0.00056616
-0.000569517
-0.00057358
-0.000578371
-0.000583902
-0.000590294
-0.000597633
-0.000606053
-0.000615715
-0.000626807
-0.000639519
-0.000654057
-0.00067068
-0.000689345
-0.000710094
-0.000732639
-0.00075616
-0.000778674
-0.000796217
-0.000808374
-0.000816822
-0.000547094
-0.000547484
-0.000548351
-0.000549778
-0.000551754
-0.000554282
-0.00055736
-0.000560998
-0.000565226
-0.000570175
-0.000575935
-0.000582646
-0.000590502
-0.00059975
-0.000610696
-0.00062373
-0.000639275
-0.000657852
-0.000680121
-0.000706385
-0.000737656
-0.000774372
-0.000815886
-0.000862512
-0.000918499
-0.000535081
-0.00053537
-0.000536043
-0.000537185
-0.000538792
-0.000540863
-0.000543397
-0.000546382
-0.000549931
-0.000554111
-0.000559021
-0.000564802
-0.000571649
-0.000579823
-0.000589656
-0.000601516
-0.000615932
-0.000633529
-0.000655272
-0.000682343
-0.000716435
-0.000760045
-0.000818816
-0.000908223
-0.00106793
-0.000523513
-0.000523785
-0.000524431
-0.000525534
-0.000527098
-0.000529123
-0.000531603
-0.000534599
-0.000538146
-0.000542312
-0.000547198
-0.00055294
-0.00055972
-0.000567769
-0.000577396
-0.000589063
-0.000603272
-0.000620665
-0.000642152
-0.000668928
-0.000702808
-0.000746767
-0.000806315
-0.00089137
-0.00101354
-0.000512358
-0.000512635
-0.00051329
-0.000514408
-0.000515996
-0.000518057
-0.00052061
-0.00052368
-0.00052731
-0.000531569
-0.000536553
-0.000542393
-0.000549264
-0.00055739
-0.000567063
-0.000578657
-0.000592626
-0.000609649
-0.000630438
-0.00065603
-0.000687896
-0.000728179
-0.000779919
-0.00084635
-0.000926392
-0.000501608
-0.000501888
-0.000502547
-0.000503671
-0.000505269
-0.000507348
-0.000509919
-0.000513007
-0.000516653
-0.000520919
-0.000525891
-0.00053169
-0.000538475
-0.000546448
-0.000555866
-0.000567048
-0.000580383
-0.000596368
-0.000615585
-0.000638772
-0.000666851
-0.000700908
-0.000741934
-0.000789743
-0.00084032
-0.000491258
-0.000491534
-0.000492182
-0.000493289
-0.000494862
-0.000496906
-0.000499432
-0.000502459
-0.000506022
-0.000510172
-0.000514985
-0.000520563
-0.000527041
-0.00053459
-0.00054342
-0.000553782
-0.000565973
-0.000580337
-0.000597253
-0.000617124
-0.000640372
-0.000667265
-0.000697593
-0.000729923
-0.000760499
-0.000481301
-0.000481568
-0.000482192
-0.000483257
-0.000484772
-0.000486738
-0.000489161
-0.000492056
-0.000495448
-0.000499378
-0.000503904
-0.00050911
-0.000515102
-0.000522012
-0.000529998
-0.000539239
-0.000549933
-0.000562282
-0.000576474
-0.000592646
-0.000610805
-0.00063075
-0.00065173
-0.00067209
-0.000688905
-0.000471737
-0.000471987
-0.000472573
-0.000473577
-0.000475004
-0.000476853
-0.000479124
-0.000481826
-0.000484974
-0.000488595
-0.000492733
-0.000497447
-0.000502813
-0.000508926
-0.00051589
-0.000523816
-0.000532809
-0.00054295
-0.000554272
-0.000566715
-0.00058006
-0.000593812
-0.000607091
-0.000618388
-0.000625521
-0.000462563
-0.00046279
-0.000463327
-0.000464252
-0.000465566
-0.000467265
-0.000469343
-0.000471802
-0.000474646
-0.000477891
-0.000481561
-0.000485694
-0.000490338
-0.000495549
-0.000501384
-0.000507892
-0.000515101
-0.000523001
-0.000531511
-0.000540447
-0.000549462
-0.000557978
-0.000565107
-0.000569595
-0.000569823
-0.000453781
-0.000453981
-0.000454459
-0.00045529
-0.00045647
-0.000457991
-0.000459844
-0.00046202
-0.000464516
-0.000467333
-0.000470481
-0.000473975
-0.000477836
-0.000482088
-0.000486747
-0.000491812
-0.000497252
-0.000502991
-0.000508875
-0.000514652
-0.000519926
-0.000524119
-0.000526432
-0.000525838
-0.000521126
-0.000445396
-0.000445565
-0.000445976
-0.0004467
-0.00044773
-0.000449054
-0.000450656
-0.000452522
-0.000454638
-0.000456995
-0.000459585
-0.000462408
-0.000465461
-0.000468738
-0.000472224
-0.000475879
-0.000479632
-0.000483362
-0.000486876
-0.000489893
-0.000492016
-0.000492711
-0.00049129
-0.000486929
-0.000478705
-0.000437415
-0.000437548
-0.000437887
-0.000438496
-0.000439364
-0.000440476
-0.000441812
-0.000443349
-0.000445067
-0.000446945
-0.000448965
-0.000451108
-0.000453353
-0.000455673
-0.000458027
-0.000460348
-0.000462539
-0.000464453
-0.000465883
-0.000466544
-0.000466063
-0.000463966
-0.00045968
-0.000452545
-0.000441855
-0.000429844
-0.00042994
-0.000430203
-0.00043069
-0.00043139
-0.000432282
-0.000433342
-0.000434542
-0.000435855
-0.000437252
-0.000438703
-0.000440176
-0.000441638
-0.000443043
-0.000444332
-0.000445424
-0.000446202
-0.000446512
-0.000446145
-0.000444832
-0.000442233
-0.00043794
-0.00043148
-0.000422329
-0.000409944
-0.000422691
-0.000422749
-0.000422934
-0.000423298
-0.000423826
-0.000424495
-0.000425277
-0.000426141
-0.000427052
-0.000427975
-0.000428872
-0.000429703
-0.000430421
-0.000430971
-0.000431282
-0.000431262
-0.00043079
-0.000429709
-0.000427822
-0.000424879
-0.000420584
-0.000414589
-0.000406505
-0.000395919
-0.000382411
-0.000415964
-0.000415985
-0.000416092
-0.000416332
-0.000416689
-0.000417137
-0.000417645
-0.000418178
-0.000418699
-0.000419166
-0.000419536
-0.000419761
-0.000419788
-0.000419555
-0.000418983
-0.000417977
-0.000416417
-0.000414152
-0.000410998
-0.000406734
-0.000401101
-0.000393809
-0.000384541
-0.000372968
-0.000358768
-0.000409671
-0.000409655
-0.000409685
-0.000409805
-0.000409994
-0.000410227
-0.00041047
-0.000410686
-0.000410834
-0.00041087
-0.000410746
-0.000410412
-0.000409808
-0.000408868
-0.000407514
-0.000405649
-0.000403158
-0.0003999
-0.000395709
-0.00039039
-0.000383723
-0.000375466
-0.000365362
-0.000353151
-0.000338584
-0.000403818
-0.000403765
-0.000403722
-0.000403725
-0.000403754
-0.000403781
-0.000403771
-0.000403687
-0.000403485
-0.000403121
-0.000402543
-0.000401698
-0.000400527
-0.000398962
-0.000396925
-0.000394324
-0.000391049
-0.000386973
-0.000381948
-0.000375805
-0.000368358
-0.000359406
-0.000348744
-0.000336165
-0.000321478
-0.000398409
-0.000398322
-0.000398208
-0.000398101
-0.000397978
-0.00039781
-0.000397564
-0.0003972
-0.000396676
-0.000395944
-0.000394955
-0.000393653
-0.000391981
-0.00038987
-0.000387247
-0.000384024
-0.000380102
-0.000375365
-0.000369683
-0.000362913
-0.000354897
-0.000345472
-0.000334472
-0.000321735
-0.000307115
-0.000393446
-0.000393327
-0.000393148
-0.000392938
-0.000392672
-0.000392325
-0.00039186
-0.000391239
-0.00039042
-0.000389357
-0.000388
-0.000386295
-0.000384186
-0.000381608
-0.00037849
-0.000374753
-0.000370305
-0.000365046
-0.000358862
-0.000351631
-0.000343222
-0.000333503
-0.000322341
-0.000309608
-0.000295195
-0.00038893
-0.000388782
-0.000388543
-0.000388237
-0.000387841
-0.000387328
-0.000386664
-0.000385811
-0.000384727
-0.000383369
-0.000381688
-0.000379634
-0.00037715
-0.000374177
-0.00037065
-0.000366495
-0.000361632
-0.000355972
-0.000349418
-0.000341867
-0.000333211
-0.000323343
-0.000312156
-0.000299554
-0.000285453
-0.00038486
-0.000384686
-0.000384392
-0.000383999
-0.000383485
-0.000382822
-0.000381978
-0.000380917
-0.0003796
-0.000377983
-0.000376022
-0.000373667
-0.000370868
-0.000367569
-0.00036371
-0.000359225
-0.000354044
-0.000348089
-0.000341278
-0.000333525
-0.000324741
-0.00031484
-0.000303738
-0.000291362
-0.00027765
-0.000381232
-0.000381033
-0.000380691
-0.00038022
-0.0003796
-0.000378803
-0.0003778
-0.000376556
-0.000375034
-0.000373194
-0.000370994
-0.000368388
-0.000365328
-0.000361765
-0.000357645
-0.000352908
-0.000347494
-0.000341335
-0.000334363
-0.000326505
-0.000317691
-0.00030785
-0.00029692
-0.000284843
-0.000271576
-0.000378039
-0.00037782
-0.000377435
-0.000376895
-0.000376181
-0.000375267
-0.000374124
-0.000372721
-0.000371024
-0.000368994
-0.000366593
-0.00036378
-0.000360511
-0.000356741
-0.000352422
-0.000347502
-0.000341928
-0.000335643
-0.00032859
-0.000320709
-0.000311943
-0.000302238
-0.000291544
-0.000279821
-0.000267038
-0.000375274
-0.000375037
-0.000374614
-0.000374015
-0.000373219
-0.000372203
-0.00037094
-0.000369402
-0.000367556
-0.000365368
-0.000362804
-0.000359825
-0.000356392
-0.000352466
-0.000348003
-0.00034296
-0.00033729
-0.000330945
-0.000323878
-0.000316041
-0.000307387
-0.000297876
-0.000287469
-0.000276139
-0.000263866
-0.000372926
-0.000372675
-0.00037222
-0.00037157
-0.000370704
-0.0003696
-0.000368236
-0.000366584
-0.000364615
-0.000362299
-0.000359604
-0.000356497
-0.000352942
-0.000348905
-0.000344348
-0.000339233
-0.00033352
-0.000327172
-0.000320146
-0.000312407
-0.000303916
-0.000294644
-0.000284562
-0.000273652
-0.000261904
-0.000370985
-0.000370722
-0.000370241
-0.000369547
-0.000368622
-0.000367446
-0.000365997
-0.000364252
-0.000362184
-0.000359767
-0.000356972
-0.000353769
-0.000350129
-0.000346021
-0.000341412
-0.000336269
-0.000330561
-0.000324254
-0.000317316
-0.000309718
-0.000301431
-0.000292431
-0.000282702
-0.000272231
-0.000261014
-0.000369436
-0.000369164
-0.000368661
-0.000367932
-0.000366959
-0.000365723
-0.000364206
-0.000362387
-0.000360242
-0.000357748
-0.00035488
-0.000351613
-0.00034792
-0.000343775
-0.00033915
-0.000334018
-0.000328352
-0.000322125
-0.000315312
-0.000307889
-0.000299836
-0.000291136
-0.000281777
-0.000271755
-0.00026107
-0.000368266
-0.000367987
-0.000367468
-0.00036671
-0.000365698
-0.000364415
-0.000362845
-0.000360968
-0.000358766
-0.000356217
-0.000353301
-0.000349996
-0.000346279
-0.000342127
-0.000337517
-0.000332428
-0.000326836
-0.000320721
-0.000314062
-0.000306841
-0.000299045
-0.000290662
-0.000281686
-0.000272116
-0.00026196
-0.000367459
-0.000367174
-0.000366643
-0.000365864
-0.000364822
-0.000363504
-0.000361893
-0.000359976
-0.000357734
-0.00035515
-0.000352207
-0.000348887
-0.000345169
-0.000341037
-0.000336469
-0.000331449
-0.000325957
-0.000319978
-0.000313497
-0.000306499
-0.000298977
-0.000290922
-0.000282335
-0.000273218
-0.00026358
-0.000366998
-0.000366711
-0.000366171
-0.000365376
-0.000364313
-0.000362969
-0.000361331
-0.000359385
-0.00035712
-0.000354519
-0.000351568
-0.000348252
-0.000344556
-0.000340464
-0.000335961
-0.000331031
-0.000325662
-0.000319839
-0.000313552
-0.000306793
-0.000299555
-0.000291837
-0.000283639
-0.00027497
-0.000265839
-0.000366866
-0.000366578
-0.000366033
-0.000365228
-0.000364151
-0.00036279
-0.000361135
-0.000359175
-0.000356899
-0.000354296
-0.000351354
-0.000348061
-0.000344404
-0.000340371
-0.00033595
-0.000331129
-0.000325897
-0.000320246
-0.000314167
-0.000307657
-0.000300711
-0.000293331
-0.000285522
-0.000277292
-0.000268655
-0.000367045
-0.000366758
-0.000366212
-0.000365401
-0.000364316
-0.000362946
-0.000361284
-0.000359321
-0.000357048
-0.000354456
-0.000351536
-0.00034828
-0.000344677
-0.000340718
-0.000336394
-0.000331695
-0.000326615
-0.000321147
-0.000315286
-0.00030903
-0.000302379
-0.000295337
-0.000287911
-0.000280111
-0.000271952
-0.000367518
-0.000367232
-0.000366687
-0.000365876
-0.000364788
-0.000363418
-0.000361757
-0.000359799
-0.000357539
-0.00035497
-0.000352085
-0.000348877
-0.000345341
-0.000341469
-0.000337253
-0.000332688
-0.000327769
-0.000322492
-0.000316854
-0.000310857
-0.000304501
-0.000297794
-0.000290743
-0.000283361
-0.000275663
-0.000368265
-0.000367982
-0.000367441
-0.000366632
-0.000365548
-0.000364182
-0.00036253
-0.000360587
-0.000358348
-0.000355811
-0.000352971
-0.000349823
-0.000346363
-0.000342587
-0.000338489
-0.000334066
-0.000329315
-0.000324234
-0.000318823
-0.000313084
-0.000307023
-0.000300644
-0.00029396
-0.000286982
-0.000279727
-0.000369267
-0.000368989
-0.000368454
-0.000367651
-0.000366575
-0.000365219
-0.000363582
-0.00036166
-0.000359451
-0.000356954
-0.000354167
-0.000351087
-0.000347712
-0.000344039
-0.000340066
-0.00033579
-0.000331212
-0.00032633
-0.000321146
-0.000315665
-0.000309893
-0.000303836
-0.000297507
-0.000290919
-0.00028409
-0.000370508
-0.000370235
-0.000369707
-0.000368913
-0.000367848
-0.000366508
-0.00036489
-0.000362996
-0.000360823
-0.000358373
-0.000355645
-0.00035264
-0.000349356
-0.000345792
-0.000341949
-0.000337825
-0.000333421
-0.000328739
-0.000323782
-0.000318555
-0.000313066
-0.000307323
-0.000301337
-0.000295125
-0.000288701
-0.000371968
-0.000371701
-0.000371181
-0.000370399
-0.000369348
-0.000368027
-0.000366434
-0.000364572
-0.00036244
-0.000360043
-0.00035738
-0.000354454
-0.000351266
-0.000347816
-0.000344105
-0.000340134
-0.000335906
-0.000331423
-0.00032669
-0.000321713
-0.0003165
-0.00031106
-0.000305407
-0.000299553
-0.000293517
-0.000373629
-0.000373368
-0.000372859
-0.00037209
-0.000371056
-0.000369757
-0.000368193
-0.000366366
-0.00036428
-0.000361939
-0.000359346
-0.000356503
-0.000353414
-0.00035008
-0.000346503
-0.000342687
-0.000338634
-0.000334348
-0.000329835
-0.000325102
-0.000320156
-0.00031501
-0.000309675
-0.000304165
-0.000298498
-0.000375472
-0.000375219
-0.000374721
-0.000373967
-0.000372952
-0.000371678
-0.000370145
-0.000368358
-0.000366321
-0.00036404
-0.000361518
-0.000358761
-0.000355773
-0.000352557
-0.000349115
-0.000345453
-0.000341573
-0.000337481
-0.000333182
-0.000328686
-0.000324
-0.000319136
-0.000314106
-0.000308924
-0.000303608
-0.000377482
-0.000377236
-0.00037675
-0.000376012
-0.000375018
-0.00037377
-0.000372271
-0.000370526
-0.000368541
-0.000366322
-0.000363874
-0.000361205
-0.000358319
-0.00035522
-0.000351913
-0.000348403
-0.000344693
-0.00034079
-0.000336701
-0.000332434
-0.000327998
-0.000323405
-0.000318666
-0.000313797
-0.000308814
-0.000379641
-0.000379402
-0.000378928
-0.000378207
-0.000377236
-0.000376016
-0.000374553
-0.000372852
-0.000370919
-0.000368764
-0.000366392
-0.000363811
-0.000361028
-0.000358046
-0.000354872
-0.000351511
-0.000347968
-0.00034425
-0.000340363
-0.000336318
-0.000332122
-0.000327788
-0.000323328
-0.000318755
-0.000314087
-0.000381931
-0.0003817
-0.000381239
-0.000380536
-0.000379588
-0.000378398
-0.000376971
-0.000375315
-0.000373437
-0.000371346
-0.000369051
-0.000366558
-0.000363876
-0.00036101
-0.000357967
-0.000354752
-0.000351372
-0.000347832
-0.000344142
-0.000340309
-0.000336344
-0.000332258
-0.000328062
-0.000323771
-0.000319401
-0.000384337
-0.000384114
-0.000383667
-0.000382982
-0.000382057
-0.000380898
-0.000379509
-0.000377898
-0.000376075
-0.000374049
-0.000371829
-0.000369425
-0.000366843
-0.000364092
-0.000361176
-0.000358104
-0.000354881
-0.000351514
-0.000348013
-0.000344384
-0.00034064
-0.000336789
-0.000332845
-0.000328821
-0.000324732
-0.000386844
-0.000386628
-0.000386194
-0.000385528
-0.000384628
-0.000383499
-0.000382148
-0.000380584
-0.000378816
-0.000376854
-0.00037471
-0.000372392
-0.000369909
-0.000367269
-0.000364479
-0.000361545
-0.000358474
-0.000355274
-0.000351954
-0.000348521
-0.000344986
-0.00034136
-0.000337655
-0.000333884
-0.00033006
-0.000389437
-0.000389228
-0.000388807
-0.000388159
-0.000387284
-0.000386186
-0.000384873
-0.000383355
-0.000381641
-0.000379744
-0.000377674
-0.000375442
-0.000373056
-0.000370524
-0.000367854
-0.000365054
-0.00036213
-0.000359091
-0.000355944
-0.000352698
-0.000349364
-0.000345951
-0.000342472
-0.000338939
-0.000335365
-0.0003921
-0.000391899
-0.000391491
-0.000390861
-0.00039001
-0.000388943
-0.000387668
-0.000386196
-0.000384536
-0.000382702
-0.000380705
-0.000378556
-0.000376264
-0.000373838
-0.000371285
-0.000368614
-0.000365831
-0.000362945
-0.000359964
-0.000356897
-0.000353752
-0.000350542
-0.000347277
-0.000343968
-0.00034063
-0.00039482
-0.000394626
-0.000394231
-0.00039362
-0.000392793
-0.000391756
-0.000390519
-0.000389091
-0.000387485
-0.000385713
-0.000383787
-0.000381719
-0.000379518
-0.000377194
-0.000374754
-0.000372207
-0.00036956
-0.000366821
-0.000363998
-0.0003611
-0.000358136
-0.000355117
-0.000352054
-0.000348957
-0.00034584
-0.000397584
-0.000397397
-0.000397014
-0.000396421
-0.000395618
-0.000394611
-0.00039341
-0.000392027
-0.000390473
-0.000388761
-0.000386905
-0.000384915
-0.000382802
-0.000380577
-0.000378246
-0.000375817
-0.0003733
-0.000370701
-0.000368028
-0.000365291
-0.000362499
-0.000359661
-0.000356787
-0.00035389
-0.000350981
-0.000400379
-0.000400199
-0.000399828
-0.000399252
-0.000398472
-0.000397494
-0.00039633
-0.000394989
-0.000393486
-0.000391833
-0.000390043
-0.00038813
-0.000386102
-0.000383971
-0.000381744
-0.00037943
-0.000377036
-0.00037457
-0.000372041
-0.000369456
-0.000366826
-0.000364159
-0.000361465
-0.000358755
-0.000356041
-0.000403193
-0.000403018
-0.000402659
-0.0004021
-0.000401342
-0.000400394
-0.000399264
-0.000397965
-0.000396511
-0.000394915
-0.00039319
-0.00039135
-0.000389404
-0.000387363
-0.000385236
-0.000383031
-0.000380755
-0.000378416
-0.000376022
-0.000373582
-0.000371104
-0.000368598
-0.000366074
-0.00036354
-0.000361009
-0.000406014
-0.000405845
-0.000405497
-0.000404954
-0.000404218
-0.000403297
-0.000402201
-0.000400943
-0.000399536
-0.000397994
-0.000396332
-0.000394562
-0.000392695
-0.000390741
-0.000388709
-0.000386607
-0.000384443
-0.000382225
-0.00037996
-0.000377656
-0.000375323
-0.000372969
-0.000370602
-0.000368234
-0.000365874
-0.000408831
-0.000408668
-0.00040833
-0.000407802
-0.000407087
-0.000406193
-0.000405129
-0.00040391
-0.000402549
-0.00040106
-0.000399458
-0.000397755
-0.000395963
-0.000394092
-0.000392151
-0.000390147
-0.00038809
-0.000385985
-0.000383842
-0.000381667
-0.00037947
-0.000377259
-0.000375042
-0.000372828
-0.000370628
-0.000411634
-0.000411475
-0.000411147
-0.000410634
-0.000409939
-0.00040907
-0.000408038
-0.000406856
-0.000405539
-0.0004041
-0.000402555
-0.000400917
-0.000399197
-0.000397405
-0.00039555
-0.00039364
-0.000391683
-0.000389687
-0.000387659
-0.000385606
-0.000383537
-0.000381459
-0.000379382
-0.000377313
-0.000375263
-0.000414413
-0.000414258
-0.000413938
-0.000413439
-0.000412763
-0.000411918
-0.000410916
-0.00040977
-0.000408495
-0.000407105
-0.000405615
-0.000404038
-0.000402386
-0.000400669
-0.000398897
-0.000397076
-0.000395214
-0.00039332
-0.0003914
-0.000389462
-0.000387513
-0.000385561
-0.000383615
-0.000381682
-0.000379771
-0.000417158
-0.000417006
-0.000416695
-0.000416208
-0.00041555
-0.000414729
-0.000413755
-0.000412643
-0.000411408
-0.000410064
-0.000408626
-0.000407108
-0.000405521
-0.000403876
-0.000402181
-0.000400444
-0.000398673
-0.000396875
-0.000395057
-0.000393227
-0.000391391
-0.000389557
-0.000387734
-0.000385928
-0.000384147
-0.000419859
-0.000419711
-0.000419406
-0.000418932
-0.000418291
-0.000417491
-0.000416545
-0.000415465
-0.000414268
-0.000412968
-0.00041158
-0.000410118
-0.000408593
-0.000407015
-0.000405394
-0.000403737
-0.000402051
-0.000400344
-0.000398622
-0.000396893
-0.000395163
-0.00039344
-0.000391731
-0.000390044
-0.000388385
-0.00042251
-0.000422363
-0.000422065
-0.000421602
-0.000420976
-0.000420197
-0.000419276
-0.000418228
-0.000417067
-0.000415809
-0.000414468
-0.000413059
-0.000411592
-0.000410079
-0.000408527
-0.000406946
-0.00040534
-0.000403719
-0.000402088
-0.000400454
-0.000398823
-0.000397204
-0.000395602
-0.000394025
-0.000392479
-0.0004251
-0.000424955
-0.000424662
-0.000424209
-0.000423598
-0.000422838
-0.000421941
-0.000420922
-0.000419796
-0.000418577
-0.000417282
-0.000415923
-0.000414512
-0.000413059
-0.000411574
-0.000410063
-0.000408534
-0.000406993
-0.000405447
-0.000403902
-0.000402365
-0.000400842
-0.00039934
-0.000397866
-0.000396426
-0.000427623
-0.000427479
-0.00042719
-0.000426745
-0.000426147
-0.000425406
-0.000424532
-0.000423541
-0.000422447
-0.000421266
-0.000420013
-0.000418702
-0.000417344
-0.000415949
-0.000414526
-0.000413083
-0.000411625
-0.00041016
-0.000408693
-0.000407232
-0.000405783
-0.00040435
-0.000402942
-0.000401563
-0.00040022
-0.000430072
-0.000429926
-0.000429641
-0.000429204
-0.000428618
-0.000427893
-0.000427041
-0.000426076
-0.000425013
-0.000423868
-0.000422656
-0.00042139
-0.000420082
-0.000418742
-0.000417378
-0.000415998
-0.000414607
-0.000413213
-0.000411822
-0.000410439
-0.000409071
-0.000407723
-0.000406401
-0.000405112
-0.00040386
-0.000432438
-0.000432291
-0.000432007
-0.000431577
-0.000431002
-0.000430293
-0.000429461
-0.000428521
-0.000427487
-0.000426377
-0.000425203
-0.00042398
-0.00042272
-0.000421431
-0.000420123
-0.000418802
-0.000417476
-0.000416149
-0.000414828
-0.000413518
-0.000412226
-0.000410957
-0.000409716
-0.000408509
-0.000407342
-0.000434716
-0.000434566
-0.000434283
-0.000433857
-0.000433292
-0.000432597
-0.000431784
-0.000430868
-0.000429863
-0.000428785
-0.000427648
-0.000426466
-0.000425251
-0.000424012
-0.000422756
-0.000421492
-0.000420225
-0.000418961
-0.000417706
-0.000416465
-0.000415244
-0.000414048
-0.000412882
-0.000411752
-0.000410662
-0.000436899
-0.000436744
-0.00043646
-0.000436038
-0.000435482
-0.0004348
-0.000434005
-0.000433111
-0.000432133
-0.000431086
-0.000429985
-0.000428842
-0.00042767
-0.000426478
-0.000425272
-0.000424061
-0.00042285
-0.000421645
-0.000420452
-0.000419275
-0.000418121
-0.000416993
-0.000415897
-0.000414838
-0.00041382
-0.00043898
-0.00043882
-0.000438532
-0.000438113
-0.000437564
-0.000436895
-0.000436117
-0.000435244
-0.000434292
-0.000433275
-0.000432208
-0.000431104
-0.000429973
-0.000428824
-0.000427666
-0.000426506
-0.000425348
-0.000424199
-0.000423063
-0.000421947
-0.000420854
-0.000419789
-0.000418758
-0.000417765
-0.000416814
-0.000440953
-0.000440785
-0.000440492
-0.000440074
-0.000439532
-0.000438874
-0.000438113
-0.000437261
-0.000436335
-0.000435347
-0.000434313
-0.000433245
-0.000432153
-0.000431048
-0.000429935
-0.000428822
-0.000427715
-0.000426618
-0.000425536
-0.000424476
-0.00042344
-0.000422434
-0.000421463
-0.00042053
-0.000419641
-0.000442812
-0.000442633
-0.000442334
-0.000441916
-0.000441379
-0.000440732
-0.000439987
-0.000439156
-0.000438255
-0.000437296
-0.000436295
-0.000435262
-0.000434209
-0.000433144
-0.000432075
-0.000431007
-0.000429947
-0.000428899
-0.000427868
-0.00042686
-0.000425878
-0.000424926
-0.00042401
-0.000423134
-0.000422301
-0.00044455
-0.000444358
-0.000444049
-0.000443629
-0.000443097
-0.000442462
-0.000441733
-0.000440924
-0.000440048
-0.000439118
-0.000438149
-0.000437151
-0.000436135
-0.00043511
-0.000434082
-0.000433057
-0.000432042
-0.00043104
-0.000430057
-0.000429097
-0.000428165
-0.000427264
-0.000426399
-0.000425574
-0.000424792
-0.000446161
-0.000445951
-0.00044563
-0.000445207
-0.00044468
-0.000444056
-0.000443344
-0.000442558
-0.000441708
-0.000440808
-0.000439871
-0.000438908
-0.000437929
-0.000436942
-0.000435954
-0.000434971
-0.000433998
-0.00043304
-0.000432101
-0.000431187
-0.0004303
-0.000429446
-0.000428627
-0.000427849
-0.000427115
-0.000447635
-0.000447405
-0.000447067
-0.00044664
-0.000446118
-0.000445507
-0.000444815
-0.000444053
-0.000443232
-0.000442363
-0.00044146
-0.000440532
-0.000439589
-0.00043864
-0.00043769
-0.000436746
-0.000435813
-0.000434896
-0.000433999
-0.000433126
-0.000432282
-0.00043147
-0.000430695
-0.00042996
-0.000429269
-0.000448965
-0.000448707
-0.00044835
-0.000447918
-0.000447403
-0.000446809
-0.00044614
-0.000445405
-0.000444615
-0.00044378
-0.000442911
-0.000442019
-0.000441113
-0.0004402
-0.000439288
-0.000438382
-0.000437487
-0.000436608
-0.000435749
-0.000434915
-0.00043411
-0.000433338
-0.000432602
-0.000431906
-0.000431253
-0.000450138
-0.000449846
-0.000449465
-0.000449029
-0.000448526
-0.000447952
-0.000447311
-0.00044661
-0.000445855
-0.000445056
-0.000444224
-0.000443369
-0.000442499
-0.000441623
-0.000440747
-0.000439877
-0.000439018
-0.000438175
-0.000437352
-0.000436554
-0.000435784
-0.000435048
-0.000434347
-0.000433686
-0.000433069
-0.000451139
-0.000450803
-0.000450395
-0.000449958
-0.000449473
-0.000448929
-0.000448325
-0.000447663
-0.000446949
-0.00044619
-0.000445398
-0.000444581
-0.000443749
-0.000442908
-0.000442067
-0.000441232
-0.000440406
-0.000439596
-0.000438806
-0.000438041
-0.000437304
-0.0004366
-0.000435931
-0.000435302
-0.000434715
-0.000451943
-0.000451554