/*--------------------------------*- C++ -*----------------------------------*\
  =========                 |
  \\      /  F ield         | OpenFOAM: The Open Source CFD Toolbox
   \\    /   O peration     | Website:  https://openfoam.org
    \\  /    A nd           | Version:  13
     \\/     M anipulation  |
\*---------------------------------------------------------------------------*/
FoamFile
{
    format      ascii;
    class       surfaceScalarField;
    location    "21";
    object      phi;
}
// * * * * * * * * * * * * * * * * * * * * * * * * * * * * * * * * * * * * * //

dimensions      [0 3 -1 0 0 0 0];

internalField   nonuniform List<scalar> 
12590
(
3.58272e-13
-3.58271e-13
1.28534e-12
-9.27069e-13
2.05661e-12
-7.71262e-13
2.47144e-12
-4.14833e-13
2.50622e-12
-3.47798e-14
2.1022e-12
4.04027e-13
1.20566e-12
8.96537e-13
-2.24766e-13
1.43043e-12
-2.17393e-12
1.94916e-12
-4.57206e-12
2.39813e-12
-7.31933e-12
2.74728e-12
-1.02532e-11
2.93392e-12
-1.31433e-11
2.89001e-12
-1.58066e-11
2.66338e-12
-1.81272e-11
2.32059e-12
-1.99503e-11
1.82307e-12
-2.10243e-11
1.074e-12
-2.13844e-11
3.60168e-13
-2.10987e-11
-2.85667e-13
-2.03215e-11
-7.77186e-13
-1.91331e-11
-1.18845e-12
-1.71053e-11
-2.02777e-12
-1.42039e-11
-2.90135e-12
-8.03093e-12
-6.17296e-12
-8.03092e-12
1.04221e-12
-1.40048e-12
2.70658e-12
-2.59144e-12
4.24679e-12
-2.31147e-12
5.65314e-12
-1.82118e-12
7.06684e-12
-1.44848e-12
8.49612e-12
-1.02524e-12
9.93443e-12
-5.41774e-13
1.13871e-11
-2.22447e-14
1.28305e-11
5.05806e-13
1.42213e-11
1.00735e-12
1.55585e-11
1.41002e-12
1.68384e-11
1.65407e-12
1.80254e-11
1.703e-12
1.91774e-11
1.51134e-12
2.02497e-11
1.24827e-12
2.12748e-11
7.97976e-13
2.20489e-11
2.9994e-13
2.25221e-11
-1.13e-13
2.25427e-11
-3.0624e-13
2.19092e-11
-1.43709e-13
2.03301e-11
3.90654e-13
1.75784e-11
7.24005e-13
1.31395e-11
1.53757e-12
6.114e-12
8.52541e-13
-1.91692e-12
1.89385e-12
-3.29432e-12
4.33215e-12
-5.02975e-12
6.45657e-12
-4.43588e-12
8.47334e-12
-3.83795e-12
1.0545e-11
-3.52011e-12
1.26671e-11
-3.14734e-12
1.47934e-11
-2.66808e-12
1.68529e-11
-2.08181e-12
1.87781e-11
-1.41936e-12
2.05053e-11
-7.19863e-13
2.19384e-11
-2.30355e-14
2.2952e-11
6.40444e-13
2.34476e-11
1.20747e-12
2.33899e-11
1.56896e-12
2.28951e-11
1.74317e-12
2.19344e-11
1.75866e-12
2.05401e-11
1.69426e-12
1.87747e-11
1.65234e-12
1.67053e-11
1.7632e-12
1.43923e-11
2.16934e-12
1.18481e-11
2.93485e-12
9.10284e-12
3.46933e-12
6.22567e-12
4.41479e-12
2.54539e-12
4.53285e-12
6.28476e-13
2.64934e-12
-5.94366e-12
5.65972e-12
-8.04013e-12
8.1551e-12
-6.93126e-12
1.05777e-11
-6.26055e-12
1.29824e-11
-5.92478e-12
1.54035e-11
-5.56847e-12
1.77589e-11
-5.02352e-12
1.99627e-11
-4.28557e-12
2.19164e-11
-3.37304e-12
2.35237e-11
-2.32721e-12
2.46957e-11
-1.19498e-12
2.53644e-11
-2.82975e-14
2.54382e-11
1.13368e-12
2.47431e-11
2.26406e-12
2.33293e-11
3.15694e-12
2.12987e-11
3.78924e-12
1.87542e-11
4.23876e-12
1.58602e-11
4.54641e-12
1.27891e-11
4.83431e-12
9.77752e-12
5.18092e-12
7.02952e-12
5.68286e-12
4.73638e-12
5.76248e-12
3.14926e-12
6.00194e-12
1.41902e-12
6.26312e-12
2.0475e-12
3.22403e-12
-9.1677e-12
6.57785e-12
-1.1394e-11
9.29024e-12
-9.64365e-12
1.19155e-11
-8.88581e-12
1.45066e-11
-8.51593e-12
1.70613e-11
-8.12316e-12
1.94965e-11
-7.45874e-12
2.17149e-11
-6.50393e-12
2.3624e-11
-5.28215e-12
2.5126e-11
-3.82921e-12
2.61265e-11
-2.19553e-12
2.65398e-11
-4.41541e-13
2.63086e-11
1.36487e-12
2.53932e-11
3.1795e-12
2.35936e-11
4.95649e-12
2.10677e-11
6.3152e-12
1.79877e-11
7.31871e-12
1.45671e-11
7.96698e-12
1.09751e-11
8.42634e-12
7.70343e-12
8.45264e-12
4.91445e-12
8.47186e-12
2.86409e-12
7.81287e-12
1.79939e-12
7.06667e-12
8.14985e-13
7.24755e-12
2.86248e-12
3.65062e-12
-1.28183e-11
7.17298e-12
-1.49163e-11
9.99239e-12
-1.24631e-11
1.27068e-11
-1.16003e-11
1.54747e-11
-1.12838e-11
1.80728e-11
-1.07213e-11
2.05083e-11
-9.89426e-12
2.26969e-11
-8.69251e-12
2.45528e-11
-7.13803e-12
2.59934e-11
-5.26986e-12
2.6932e-11
-3.13413e-12
2.72843e-11
-7.93787e-13
2.69796e-11
1.66955e-12
2.59924e-11
4.1667e-12
2.43033e-11
6.64552e-12
2.16503e-11
8.96828e-12
1.83581e-11
1.06109e-11
1.464e-11
1.1685e-11
1.12033e-11
1.18631e-11
7.53037e-12
1.21256e-11
4.268e-12
1.17342e-11
2.02129e-12
1.00596e-11
8.8011e-13
8.20787e-12
1.53129e-13
7.97456e-12
3.01562e-12
3.9791e-12
-1.67974e-11
7.57403e-12
-1.85113e-11
1.04555e-11
-1.53445e-11
1.32326e-11
-1.43774e-11
1.60262e-11
-1.40774e-11
1.87539e-11
-1.3449e-11
2.11628e-11
-1.23032e-11
2.3303e-11
-1.08327e-11
2.51143e-11
-8.94926e-12
2.65353e-11
-6.69095e-12
2.75032e-11
-4.10204e-12
2.79468e-11
-1.23731e-12
2.77897e-11
1.82659e-12
2.69745e-11
4.98192e-12
2.54901e-11
8.12996e-12
2.32764e-11
1.11819e-11
2.01518e-11
1.37355e-11
1.64713e-11
1.53656e-11
1.22242e-11
1.61102e-11
8.88838e-12
1.54614e-11
5.36493e-12
1.52577e-11
2.22432e-12
1.32002e-11
6.5252e-13
9.7797e-12
-2.15139e-13
8.84224e-12
2.80048e-12
4.23529e-12
-2.10327e-11
7.85984e-12
-2.21358e-11
1.07983e-11
-1.8283e-11
1.36375e-11
-1.72166e-11
1.64399e-11
-1.68799e-11
1.9163e-11
-1.61722e-11
2.17172e-11
-1.48573e-11
2.38048e-11
-1.29204e-11
2.55834e-11
-1.07278e-11
2.70181e-11
-8.12573e-12
2.80785e-11
-5.16244e-12
2.87182e-11
-1.87704e-12
2.88713e-11
1.67351e-12
2.84539e-11
5.39935e-12
2.74176e-11
9.16624e-12
2.57228e-11
1.28767e-11
2.30611e-11
1.63971e-11
1.95354e-11
1.88914e-11
1.53638e-11
2.02817e-11
1.09284e-11
1.98968e-11
7.42856e-12
1.87576e-11
3.56039e-12
1.70684e-11
1.17823e-12
1.21619e-11
-2.11788e-13
1.02323e-11
2.5887e-12
4.4273e-12
-2.54601e-11
8.06653e-12
-2.57751e-11
1.10765e-11
-2.12929e-11
1.39977e-11
-2.01379e-11
1.6852e-11
-1.97342e-11
1.95871e-11
-1.89073e-11
2.21674e-11
-1.74377e-11
2.43844e-11
-1.51374e-11
2.61659e-11
-1.25094e-11
2.76504e-11
-9.61018e-12
2.88377e-11
-6.34986e-12
2.97181e-11
-2.7574e-12
3.02534e-11
1.13814e-12
3.03631e-11
5.28965e-12
2.99274e-11
9.6019e-12
2.8878e-11
1.39261e-11
2.7119e-11
1.81561e-11
2.39894e-11
2.2021e-11
1.99322e-11
2.43389e-11
1.46557e-11
2.51733e-11
1.00579e-11
2.33554e-11
6.16693e-12
2.09593e-11
2.23882e-12
1.609e-11
1.04106e-13
1.2367e-11
2.6928e-12
4.55238e-12
-3.00125e-11
8.20078e-12
-2.94235e-11
1.13007e-11
-2.43929e-11
1.43304e-11
-2.31675e-11
1.72834e-11
-2.26873e-11
2.0107e-11
-2.1731e-11
2.27503e-11
-2.00811e-11
2.51964e-11
-1.75835e-11
2.70652e-11
-1.43782e-11
2.86692e-11
-1.12142e-11
3.00253e-11
-7.70602e-12
3.11594e-11
-3.8915e-12
3.20743e-11
2.23217e-13
3.272e-11
4.64387e-12
3.29657e-11
9.3562e-12
3.26171e-11
1.42746e-11
3.15015e-11
1.92717e-11
2.93502e-11
2.41723e-11
2.55127e-11
2.81763e-11
2.03835e-11
3.03025e-11
1.41165e-11
2.96224e-11
9.03616e-12
2.60396e-11
4.33114e-12
2.0795e-11
8.34659e-13
1.58635e-11
3.52745e-12
4.60197e-12
-3.46144e-11
8.2531e-12
-3.30747e-11
1.14601e-11
-2.76e-11
1.46313e-11
-2.63387e-11
1.77485e-11
-2.58045e-11
2.07697e-11
-2.47522e-11
2.36479e-11
-2.29593e-11
2.63492e-11
-2.02849e-11
2.84986e-11
-1.65277e-11
3.03818e-11
-1.30975e-11
3.20207e-11
-9.34495e-12
3.34597e-11
-5.33058e-12
3.47423e-11
-1.05944e-12
3.58739e-11
3.51218e-12
3.67725e-11
8.45752e-12
3.72294e-11
1.38175e-11
3.69724e-11
1.95286e-11
3.56771e-11
2.54675e-11
3.25552e-11
3.12982e-11
2.75233e-11
3.53343e-11
2.02513e-11
3.68943e-11
1.29276e-11
3.33633e-11
7.63047e-12
2.60921e-11
1.84962e-12
2.16443e-11
5.37705e-12
4.56448e-12
-3.91789e-11
8.2051e-12
-3.67153e-11
1.15297e-11
-3.09246e-11
1.48748e-11
-2.96838e-11
1.82273e-11
-2.91571e-11
2.1566e-11
-2.80909e-11
2.48495e-11
-2.6243e-11
2.80167e-11
-2.34521e-11
3.06982e-11
-1.92094e-11
3.31282e-11
-1.55277e-11
3.52922e-11
-1.15091e-11
3.72113e-11
-7.24984e-12
3.89318e-11
-2.78007e-12
4.05037e-11
1.94011e-12
4.19305e-11
7.03067e-12
4.3094e-11
1.26539e-11
4.36873e-11
1.89352e-11
4.32809e-11
2.58738e-11
4.12961e-11
3.32829e-11
3.65069e-11
4.01233e-11
2.92348e-11
4.41663e-11
1.92875e-11
4.33106e-11
1.14521e-11
3.39274e-11
3.65449e-12
2.94418e-11
9.03151e-12
4.4286e-12
-4.36075e-11
8.03756e-12
-4.03243e-11
1.1483e-11
-3.43701e-11
1.50316e-11
-3.32325e-11
1.86909e-11
-3.28164e-11
2.2471e-11
-3.18712e-11
2.63443e-11
-3.01164e-11
3.0236e-11
-2.7344e-11
3.37921e-11
-2.27657e-11
3.71557e-11
-1.88915e-11
4.02595e-11
-1.46131e-11
4.30487e-11
-1.00393e-11
4.55019e-11
-5.23345e-12
4.76381e-11
-1.96274e-13
4.95114e-11
5.15717e-12
5.11507e-11
1.10143e-11
5.24059e-11
1.76799e-11
5.28296e-11
2.54499e-11
5.16783e-11
3.4434e-11
4.7743e-11
4.40585e-11
4.01237e-11
5.17855e-11
2.90765e-11
5.43576e-11
1.67103e-11
4.62933e-11
6.81888e-12
3.93331e-11
1.58503e-11
4.1867e-12
-4.77943e-11
7.73776e-12
-4.38754e-11
1.13022e-11
-3.79345e-11
1.508e-11
-3.70105e-11
1.91115e-11
-3.6848e-11
2.3446e-11
-3.62059e-11
2.80772e-11
-3.47477e-11
3.29148e-11
-3.21818e-11
3.77826e-11
-2.76338e-11
4.25259e-11
-2.3635e-11
4.71224e-11
-1.92098e-11
5.14183e-11
-1.43355e-11
5.5251e-11
-9.06646e-12
5.84959e-11
-3.44145e-12
6.11269e-11
2.52592e-12
6.32319e-11
8.90898e-12
6.48596e-11
1.6052e-11
6.57822e-11
2.45269e-11
6.53261e-11
3.48899e-11
6.22893e-11
4.70951e-11
5.46742e-11
5.94004e-11
4.20195e-11
6.70121e-11
2.59029e-11
6.24097e-11
1.12358e-11
5.4e-11
2.70861e-11
3.83765e-12
-5.1632e-11
7.304e-12
-4.73418e-11
1.09837e-11
-4.16144e-11
1.50153e-11
-4.10422e-11
1.94816e-11
-4.13145e-11
2.44761e-11
-4.12006e-11
3.00238e-11
-4.02956e-11
3.60538e-11
-3.82121e-11
4.2445e-11
-3.40252e-11
4.89876e-11
-3.0178e-11
5.57058e-11
-2.59283e-11
6.23176e-11
-2.09477e-11
6.85138e-11
-1.5263e-11
7.39821e-11
-8.91006e-12
7.8477e-11
-1.96939e-12
8.20336e-11
5.35213e-12
8.44007e-11
1.36845e-11
8.54247e-11
2.35027e-11
8.48744e-11
3.54398e-11
8.18402e-11
5.0129e-11
7.43299e-11
6.69105e-11
6.02306e-11
8.11112e-11
4.05466e-11
8.20934e-11
1.74819e-11
7.70644e-11
4.45679e-11
3.38617e-12
-5.50183e-11
6.7417e-12
-5.06976e-11
1.05299e-11
-4.54028e-11
1.48332e-11
-4.53458e-11
1.97797e-11
-4.62612e-11
2.55015e-11
-4.69227e-11
3.20601e-11
-4.68545e-11
3.94146e-11
-4.55669e-11
4.74757e-11
-4.20866e-11
5.61764e-11
-3.88789e-11
6.54978e-11
-3.525e-11
7.5102e-11
-3.05522e-11
8.46412e-11
-2.48025e-11
9.3729e-11
-1.79982e-11
1.01868e-10
-1.01089e-11
1.07926e-10
-7.06072e-13
1.11775e-10
9.83509e-12
1.13408e-10
2.18699e-11
1.12793e-10
3.60548e-11
1.09529e-10
5.33923e-11
1.02047e-10
7.43919e-11
8.71478e-11
9.60105e-11
6.33017e-11
1.05939e-10
2.86266e-11
1.11739e-10
7.31944e-11
2.83631e-12
-5.78549e-11
6.04316e-12
-5.39049e-11
9.92201e-12
-4.92821e-11
1.4495e-11
-4.99192e-11
1.99428e-11
-5.17094e-11
2.63865e-11
-5.33667e-11
3.39512e-11
-5.44194e-11
4.26504e-11
-5.42662e-11
5.24524e-11
-5.18889e-11
6.3494e-11
-4.99207e-11
7.54488e-11
-4.72051e-11
8.83876e-11
-4.34912e-11
1.01991e-10
-3.84061e-11
1.1541e-10
-3.14171e-11
1.27638e-10
-2.23378e-11
1.38503e-10
-1.15708e-11
1.46967e-10
1.37058e-12
1.52257e-10
1.65801e-11
1.53961e-10
3.43507e-11
1.51824e-10
5.55292e-11
1.44776e-10
8.14395e-11
1.29551e-10
1.11235e-10
1.01384e-10
1.34107e-10
5.01006e-11
1.63022e-10
1.23295e-10
2.09315e-12
-5.99486e-11
5.01183e-12
-5.68243e-11
8.91323e-12
-5.31842e-11
1.36399e-11
-5.46464e-11
1.93627e-11
-5.74327e-11
2.63745e-11
-6.03787e-11
3.48075e-11
-6.28526e-11
4.46721e-11
-6.4131e-11
5.63125e-11
-6.35293e-11
6.9749e-11
-6.33573e-11
8.43589e-11
-6.1815e-11
9.98035e-11
-5.89358e-11
1.16059e-10
-5.46613e-11
1.333e-10
-4.86582e-11
1.51271e-10
-4.0309e-11
1.68805e-10
-2.91052e-11
1.84775e-10
-1.45995e-11
1.98535e-10
2.8203e-12
2.08873e-10
2.40122e-11
2.1436e-10
5.00422e-11
2.1296e-10
8.28396e-11
2.00388e-10
1.23806e-10
1.7244e-10
1.62054e-10
9.957e-11
2.35892e-10
2.22865e-10
1.56057e-12
-6.151e-11
4.42796e-12
-5.96927e-11
8.38349e-12
-5.71408e-11
1.34219e-11
-5.96856e-11
1.98473e-11
-6.38587e-11
2.79888e-11
-6.85205e-11
3.773e-11
-7.25939e-11
4.87957e-11
-7.51966e-11
6.20099e-11
-7.67433e-11
7.66456e-11
-7.79928e-11
9.26874e-11
-7.78566e-11
1.09992e-10
-7.624e-11
1.28271e-10
-7.29403e-11
1.47383e-10
-6.77705e-11
1.67549e-10
-6.04742e-11
1.89305e-10
-5.08614e-11
2.13669e-10
-3.8963e-11
2.39349e-10
-2.28599e-11
2.64637e-10
-1.27539e-12
2.9004e-10
2.46392e-11
3.12791e-10
6.00882e-11
3.25012e-10
1.11585e-10
3.12174e-10
1.74893e-10
2.33783e-10
3.14283e-10
4.56647e-10
1.1938e-12
-6.2705e-11
4.16659e-12
-6.26669e-11
8.61334e-12
-6.15888e-11
1.45099e-11
-6.55831e-11
2.19188e-11
-7.12683e-11
3.08958e-11
-7.74977e-11
4.15147e-11
-8.32129e-11
5.39028e-11
-8.75846e-11
6.8658e-11
-9.14983e-11
8.49068e-11
-9.42412e-11
1.02606e-10
-9.55552e-11
1.21627e-10
-9.52609e-11
1.41875e-10
-9.31879e-11
1.63234e-10
-8.91294e-11
1.85675e-10
-8.29144e-11
2.09898e-10
-7.50841e-11
2.36426e-10
-6.54909e-11
2.68118e-10
-5.45515e-11
3.08166e-10
-4.13238e-11
3.57134e-10
-2.43286e-11
4.21832e-10
-4.61017e-12
5.09128e-10
2.42896e-11
6.05057e-10
7.89633e-11
6.17758e-10
3.01582e-10
1.07441e-09
3.76519e-13
-6.30829e-11
2.88806e-12
-6.51801e-11
6.6924e-12
-6.53946e-11
1.15062e-11
-7.0398e-11
1.74447e-11
-7.72074e-11
2.46353e-11
-8.46886e-11
3.29817e-11
-9.15593e-11
4.36016e-11
-9.82042e-11
5.58039e-11
-1.037e-10
6.94921e-11
-1.07929e-10
8.46354e-11
-1.10698e-10
1.01206e-10
-1.11831e-10
1.19177e-10
-1.11159e-10
1.38492e-10
-1.08443e-10
1.58592e-10
-1.03015e-10
1.80052e-10
-9.65438e-11
2.02427e-10
-8.7865e-11
2.27129e-10
-7.92535e-11
2.54854e-10
-6.90491e-11
2.86984e-10
-5.64582e-11
3.23529e-10
-4.11557e-11
3.6964e-10
-2.1821e-11
4.50737e-10
-2.1347e-12
7.57786e-10
-5.46678e-12
-2.21192e-11
1.85431e-09
4.31338e-13
-6.35159e-11
3.26583e-12
-6.80164e-11
7.60698e-12
-6.97374e-11
1.32229e-11
-7.60153e-11
2.01768e-11
-8.41621e-11
2.84392e-11
-9.29514e-11
3.87033e-11
-1.01823e-10
5.05506e-11
-1.10051e-10
6.4084e-11
-1.17233e-10
7.92501e-11
-1.23095e-10
9.59799e-11
-1.27427e-10
1.14207e-10
-1.30057e-10
1.33875e-10
-1.30827e-10
1.5501e-10
-1.29578e-10
1.78231e-10
-1.26236e-10
2.02998e-10
-1.21311e-10
2.29101e-10
-1.13967e-10
2.57166e-10
-1.07318e-10
2.87492e-10
-9.93749e-11
3.21408e-10
-9.03746e-11
3.60941e-10
-8.06891e-11
4.10919e-10
-7.17988e-11
4.79909e-10
-7.11257e-11
5.6991e-10
-9.54674e-11
-1.40718e-10
6.88508e-10
5.20441e-13
-6.40382e-11
3.71289e-12
-7.1211e-11
8.65543e-12
-7.46817e-11
1.5113e-11
-8.24743e-11
2.30975e-11
-9.21475e-11
3.28179e-11
-1.02672e-10
4.42844e-11
-1.1329e-10
5.75458e-11
-1.23313e-10
7.26034e-11
-1.3229e-10
8.94216e-11
-1.39912e-10
1.07954e-10
-1.45959e-10
1.2816e-10
-1.50262e-10
1.50016e-10
-1.52682e-10
1.73561e-10
-1.53123e-10
1.98921e-10
-1.51596e-10
2.25875e-10
-1.48266e-10
2.55209e-10
-1.433e-10
2.85513e-10
-1.37623e-10
3.17377e-10
-1.31239e-10
3.51279e-10
-1.24278e-10
3.87737e-10
-1.17147e-10
4.26747e-10
-1.10809e-10
4.63453e-10
-1.07832e-10
4.78506e-10
-1.10521e-10
-9.94649e-11
4.37253e-10
6.24621e-13
-6.46649e-11
4.17213e-12
-7.47607e-11
9.72148e-12
-8.02331e-11
1.70117e-11
-8.97661e-11
2.60535e-11
-1.0119e-10
3.69298e-11
-1.13549e-10
4.96849e-11
-1.26045e-10
6.43592e-11
-1.37987e-10
8.09457e-11
-1.48877e-10
9.94211e-11
-1.58387e-10
1.19759e-10
-1.66297e-10
1.41939e-10
-1.72442e-10
1.65957e-10
-1.76699e-10
1.91822e-10
-1.78988e-10
2.19532e-10
-1.79306e-10
2.49033e-10
-1.77766e-10
2.80318e-10
-1.74585e-10
3.12833e-10
-1.70138e-10
3.46319e-10
-1.64726e-10
3.8031e-10
-1.58268e-10
4.13866e-10
-1.50704e-10
4.44589e-10
-1.41532e-10
4.66001e-10
-1.29244e-10
4.64032e-10
-1.08553e-10
-6.17857e-11
4.26352e-10
7.10251e-13
-6.53773e-11
4.56896e-12
-7.86219e-11
1.06654e-11
-8.63317e-11
1.87114e-11
-9.78139e-11
2.86865e-11
-1.11167e-10
4.0634e-11
-1.25497e-10
5.45925e-11
-1.40004e-10
7.0577e-11
-1.53971e-10
8.85819e-11
-1.66881e-10
1.08591e-10
-1.78395e-10
1.30586e-10
-1.88292e-10
1.54555e-10
-1.96412e-10
1.80494e-10
-2.02637e-10
2.08394e-10
-2.06888e-10
2.38224e-10
-2.09137e-10
2.69884e-10
-2.09427e-10
3.03161e-10
-2.07863e-10
3.37622e-10
-2.04599e-10
3.72546e-10
-1.9965e-10
4.07247e-10
-1.9297e-10
4.39977e-10
-1.83434e-10
4.68133e-10
-1.6969e-10
4.87192e-10
-1.48303e-10
4.91169e-10
-1.1253e-10
-5.02445e-11
4.79628e-10
7.68904e-13
-6.61484e-11
4.88428e-12
-8.27398e-11
1.14497e-11
-9.28993e-11
2.01536e-11
-1.0652e-10
3.09503e-11
-1.21965e-10
4.38543e-11
-1.38402e-10
5.88813e-11
-1.55031e-10
7.60335e-11
-1.71123e-10
9.5301e-11
-1.86148e-10
1.16668e-10
-1.99762e-10
1.40119e-10
-2.11742e-10
1.6564e-10
-2.21933e-10
1.93219e-10
-2.30216e-10
2.22832e-10
-2.36501e-10
2.54422e-10
-2.40726e-10
2.87857e-10
-2.42862e-10
3.22882e-10
-2.42889e-10
3.59038e-10
-2.40755e-10
3.95642e-10
-2.36255e-10
4.31534e-10
-2.28862e-10
4.65711e-10
-2.17611e-10
4.9584e-10
-1.99819e-10
5.19808e-10
-1.72272e-10
5.36274e-10
-1.28996e-10
-6.2402e-11
5.48431e-10
7.97766e-13
-6.69486e-11
5.10846e-12
-8.70531e-11
1.20565e-11
-9.98497e-11
2.13144e-11
-1.15779e-10
3.28103e-11
-1.33462e-10
4.65315e-11
-1.52124e-10
6.24728e-11
-1.70973e-10
8.0624e-11
-1.89274e-10
1.00968e-10
-2.06492e-10
1.23486e-10
-2.22279e-10
1.48156e-10
-2.36412e-10
1.74959e-10
-2.48736e-10
2.03872e-10
-2.59128e-10
2.34855e-10
-2.67484e-10
2.67834e-10
-2.73706e-10
3.02665e-10
-2.77693e-10
3.3909e-10
-2.79315e-10
3.76693e-10
-2.78358e-10
4.14858e-10
-2.7442e-10
4.52759e-10
-2.66763e-10
4.89238e-10
-2.54091e-10
5.23617e-10
-2.34199e-10
5.54964e-10
-2.0362e-10
5.84104e-10
-1.58137e-10
-9.29905e-11
6.14692e-10
7.95976e-13
-6.7747e-11
5.24009e-12
-9.15e-11
1.24841e-11
-1.07096e-10
2.21881e-11
-1.25485e-10
3.42542e-11
-1.45529e-10
4.86446e-11
-1.66515e-10
6.53362e-11
-1.87664e-10
8.43055e-11
-2.08243e-10
1.05526e-10
-2.27713e-10
1.28971e-10
-2.45723e-10
1.54612e-10
-2.62052e-10
1.8242e-10
-2.76544e-10
2.12361e-10
-2.89069e-10
2.44384e-10
-2.99507e-10
2.78403e-10
-3.07725e-10
3.14278e-10
-3.13567e-10
3.5178e-10
-3.16817e-10
3.90568e-10
-3.17147e-10
4.30178e-10
-3.1403e-10
4.70038e-10
-3.06624e-10
5.0956e-10
-2.93613e-10
5.48406e-10
-2.73045e-10
5.86987e-10
-2.42202e-10
6.26765e-10
-1.97915e-10
-1.37282e-10
6.71057e-10
7.66314e-13
-6.85159e-11
5.28368e-12
-9.60202e-11
1.27405e-11
-1.14556e-10
2.27835e-11
-1.3553e-10
3.52909e-11
-1.58038e-10
5.0204e-11
-1.81429e-10
6.74818e-11
-2.04942e-10
8.70878e-11
-2.27849e-10
1.08986e-10
-2.4961e-10
1.33138e-10
-2.69875e-10
1.59509e-10
-2.88423e-10
1.88061e-10
-3.05095e-10
2.18749e-10
-3.19757e-10
2.51514e-10
-3.32272e-10
2.86271e-10
-3.42483e-10
3.22895e-10
-3.50191e-10
3.61201e-10
-3.55124e-10
4.00944e-10
-3.5689e-10
4.41822e-10
-3.54909e-10
4.83527e-10
-3.48331e-10
5.25857e-10
-3.35944e-10
5.68925e-10
-3.16113e-10
6.13533e-10
-2.8681e-10
6.61442e-10
-2.45825e-10
-1.91344e-10
7.15504e-10
7.12173e-13
-6.92307e-11
5.24898e-12
-1.0056e-10
1.28404e-11
-1.2215e-10
2.31205e-11
-1.45812e-10
3.59478e-11
-1.70867e-10
5.12436e-11
-1.96725e-10
6.89515e-11
-2.22651e-10
8.90222e-11
-2.4792e-10
1.11409e-10
-2.71996e-10
1.36065e-10
-2.94532e-10
1.62947e-10
-3.15304e-10
1.92009e-10
-3.34156e-10
2.23199e-10
-3.50947e-10
2.56458e-10
-3.6553e-10
2.91707e-10
-3.77732e-10
3.28845e-10
-3.87329e-10
3.6774e-10
-3.9402e-10
4.08241e-10
-3.9739e-10
4.50196e-10
-3.96864e-10
4.93515e-10
-3.9165e-10
5.3827e-10
-3.80699e-10
5.84858e-10
-3.62702e-10
6.34217e-10
-3.3617e-10
6.8804e-10
-2.99649e-10
-2.52085e-10
7.48781e-10
6.38717e-13
-6.98722e-11
5.14794e-12
-1.05072e-10
1.28029e-11
-1.29807e-10
2.32277e-11
-1.56239e-10
3.62628e-11
-1.83903e-10
5.18135e-11
-2.12277e-10
6.98086e-11
-2.40646e-10
9.0187e-11
-2.68298e-10
1.12893e-10
-2.94701e-10
1.37872e-10
-3.1951e-10
1.65072e-10
-3.42505e-10
1.94444e-10
-3.63527e-10
2.25934e-10
-3.82436e-10
2.59484e-10
-3.99081e-10
2.95031e-10
-4.13279e-10
3.32501e-10
-4.24799e-10
3.71816e-10
-4.33335e-10
4.12908e-10
-4.38483e-10
4.5575e-10
-4.39707e-10
5.00412e-10
-4.36312e-10
5.47144e-10
-4.27432e-10
5.96498e-10
-4.12056e-10
6.49445e-10
-3.89118e-10
7.07477e-10
-3.57681e-10
-3.17198e-10
7.72589e-10
5.50328e-13
-7.04253e-11
4.99406e-12
-1.09519e-10
1.26504e-11
-1.37466e-10
2.31372e-11
-1.66728e-10
3.62814e-11
-1.97049e-10
5.19726e-11
-2.27969e-10
7.01274e-11
-2.58801e-10
9.06749e-11
-2.88845e-10
1.13551e-10
-3.17576e-10
1.38695e-10
-3.44653e-10
1.66051e-10
-3.6986e-10
1.95566e-10
-3.93041e-10
2.27189e-10
-4.14058e-10
2.6087e-10
-4.32761e-10
2.9656e-10
-4.4897e-10
3.34218e-10
-4.62457e-10
3.73814e-10
-4.72931e-10
4.15349e-10
-4.80019e-10
4.58891e-10
-4.83249e-10
5.04617e-10
-4.82038e-10
5.52883e-10
-4.75699e-10
6.04304e-10
-4.63478e-10
6.59825e-10
-4.44639e-10
7.20752e-10
-4.18609e-10
-3.85162e-10
7.88716e-10
4.52644e-13
-7.08808e-11
4.79947e-12
-1.13869e-10
1.24046e-11
-1.45074e-10
2.28829e-11
-1.77209e-10
3.60494e-11
-2.10217e-10
5.17819e-11
-2.43702e-10
6.99859e-11
-2.77005e-10
9.05819e-11
-3.09441e-10
1.135e-10
-3.40493e-10
1.38675e-10
-3.69828e-10
1.66049e-10
-3.97234e-10
1.9557e-10
-4.22561e-10
2.2719e-10
-4.45678e-10
2.60869e-10
-4.6644e-10
2.96577e-10
-4.84678e-10
3.343e-10
-5.0018e-10
3.7405e-10
-5.12682e-10
4.15886e-10
-5.21855e-10
4.59937e-10
-5.27301e-10
5.06448e-10
-5.2855e-10
5.55828e-10
-5.25079e-10
6.08698e-10
-5.16348e-10
6.65933e-10
-5.01875e-10
7.28669e-10
-4.81345e-10
-4.54743e-10
7.98249e-10
3.49628e-13
-7.12334e-11
4.57587e-12
-1.18099e-10
1.20865e-11
-1.52588e-10
2.24963e-11
-1.87621e-10
3.5612e-11
-2.23334e-10
5.13004e-11
-2.59391e-10
6.94584e-11
-2.95163e-10
9.00001e-11
-3.29982e-10
1.12851e-10
-3.63343e-10
1.37944e-10
-3.9492e-10
1.65221e-10
-4.2451e-10
1.94631e-10
-4.51971e-10
2.26133e-10
-4.77179e-10
2.59698e-10
-5.00005e-10
2.95313e-10
-5.20293e-10
3.32988e-10
-5.37856e-10
3.72769e-10
-5.52463e-10
4.14753e-10
-5.63839e-10
4.59113e-10
-5.71661e-10
5.06129e-10
-5.75567e-10
5.56223e-10
-5.75173e-10
6.09989e-10
-5.70114e-10
6.68216e-10
-5.60102e-10
7.31877e-10
-5.45007e-10
-5.24947e-10
8.02081e-10
2.45907e-13
-7.14823e-11
4.33313e-12
-1.22189e-10
1.17144e-11
-1.59972e-10
2.20068e-11
-1.97915e-10
3.50093e-11
-2.36338e-10
5.05814e-11
-2.74964e-10
6.86126e-11
-3.13194e-10
8.90122e-11
-3.50381e-10
1.11703e-10
-3.86033e-10
1.36617e-10
-4.19834e-10
1.63698e-10
-4.5159e-10
1.92898e-10
-4.8117e-10
2.24182e-10
-5.08463e-10
2.57532e-10
-5.33355e-10
2.9295e-10
-5.55711e-10
3.30465e-10
-5.75371e-10
3.70146e-10
-5.92144e-10
4.12116e-10
-6.0581e-10
4.56572e-10
-6.16118e-10
5.03806e-10
-6.22801e-10
5.54229e-10
-6.25596e-10
6.0839e-10
-6.24276e-10
6.66984e-10
-6.18697e-10
7.30836e-10
-6.08859e-10
-5.94972e-10
8.00861e-10
1.44029e-13
-7.16293e-11
4.08032e-12
-1.26129e-10
1.13048e-11
-1.67199e-10
2.14387e-11
-2.08051e-10
3.42769e-11
-2.49177e-10
4.96713e-11
-2.90359e-10
6.75069e-11
-3.31029e-10
8.76895e-11
-3.70563e-10
1.1014e-10
-4.08483e-10
1.34793e-10
-4.44485e-10
1.61591e-10
-4.78387e-10
1.90492e-10
-5.1007e-10
2.21467e-10
-5.39438e-10
2.54507e-10
-5.66394e-10
2.89623e-10
-5.90827e-10
3.2686e-10
-6.12608e-10
3.66302e-10
-6.31587e-10
4.08086e-10
-6.47594e-10
4.52415e-10
-6.60447e-10
4.99577e-10
-6.69963e-10
5.49957e-10
-6.75977e-10
6.04048e-10
-6.78368e-10
6.62454e-10
-6.77103e-10
7.25866e-10
-6.72272e-10
-6.64141e-10
7.95034e-10
4.73075e-14
-7.16797e-11
3.82419e-12
-1.29909e-10
1.08706e-11
-1.74249e-10
2.08133e-11
-2.17996e-10
3.34433e-11
-2.61809e-10
4.86088e-11
-3.05525e-10
6.619e-11
-3.4861e-10
8.60909e-11
-3.90463e-10
1.08233e-10
-4.30624e-10
1.32549e-10
-4.68801e-10
1.58988e-10
-5.04825e-10
1.87508e-10
-5.3859e-10
2.18088e-10
-5.70017e-10
2.50722e-10
-5.99028e-10
2.85432e-10
-6.25536e-10
3.22269e-10
-6.49445e-10
3.61324e-10
-6.70642e-10
4.02738e-10
-6.89008e-10
4.4671e-10
-7.0442e-10
4.9351e-10
-7.16764e-10
5.43489e-10
-7.25956e-10
5.9708e-10
-7.31959e-10
6.54795e-10
-7.34818e-10
7.17211e-10
-7.34688e-10
-7.31866e-10
7.84936e-10
-4.30041e-14
-7.16399e-11
3.57051e-12
-1.33526e-10
1.04225e-11
-1.81104e-10
2.01465e-11
-2.27722e-10
3.25328e-11
-2.74196e-10
4.74249e-11
-3.20417e-10
6.47011e-11
-3.65886e-10
8.42641e-11
-4.10026e-10
1.06035e-10
-4.52394e-10
1.2995e-10
-4.92714e-10
1.55957e-10
-5.30831e-10
1.8402e-10
-5.66653e-10
2.14119e-10
-6.00115e-10
2.46254e-10
-6.31162e-10
2.80449e-10
-6.59731e-10
3.16759e-10
-6.85755e-10
3.55274e-10
-7.09158e-10
3.96131e-10
-7.29865e-10
4.39515e-10
-7.47804e-10
4.85671e-10
-7.62921e-10
5.34909e-10
-7.75194e-10
5.876e-10
-7.8465e-10
6.44172e-10
-7.91391e-10
7.05096e-10
-7.95613e-10
-7.97631e-10
7.7086e-10
-1.24987e-13
-7.1518e-11
3.32294e-12
-1.36977e-10
9.96785e-12
-1.87752e-10
1.94515e-11
-2.37208e-10
3.15629e-11
-2.86309e-10
4.61442e-11
-3.34999e-10
6.30713e-11
-3.82813e-10
8.22464e-11
-4.292e-10
1.03592e-10
-4.73738e-10
1.27043e-10
-5.16165e-10
1.52552e-10
-5.56339e-10
1.80084e-10
-5.94183e-10
2.0962e-10
-6.29651e-10
2.41161e-10
-6.62703e-10
2.74732e-10
-6.93302e-10
3.10385e-10
-7.21408e-10
3.48206e-10
-7.46979e-10
3.88317e-10
-7.69977e-10
4.30888e-10
-7.90375e-10
4.76131e-10
-8.08165e-10
5.2431e-10
-8.23374e-10
5.75736e-10
-8.36077e-10
6.30759e-10
-8.46414e-10
6.89755e-10
-8.54609e-10
-8.60982e-10
7.53105e-10
-1.98643e-13
-7.13226e-11
3.08444e-12
-1.40264e-10
9.51265e-12
-1.94183e-10
1.87371e-11
-2.46435e-10
3.05482e-11
-2.98121e-10
4.47856e-11
-3.49237e-10
6.13246e-11
-3.99352e-10
8.00674e-11
-4.47942e-10
1.00936e-10
-4.94605e-10
1.23869e-10
-5.39096e-10
1.48817e-10
-5.81286e-10
1.75746e-10
-6.21112e-10
2.04637e-10
-6.58542e-10
2.35491e-10
-6.93556e-10
2.68329e-10
-7.2614e-10
3.03197e-10
-7.56276e-10
3.4017e-10
-7.83952e-10
3.79355e-10
-8.09163e-10
4.20897e-10
-8.31917e-10
4.64975e-10
-8.52243e-10
5.11806e-10
-8.70206e-10
5.61642e-10
-8.85913e-10
6.14759e-10
-8.99532e-10
6.71447e-10
-9.11297e-10
-9.21529e-10
7.31993e-10
-2.62951e-13
-7.10629e-11
2.85625e-12
-1.43387e-10
9.06038e-12
-2.0039e-10
1.80108e-11
-2.55387e-10
2.94986e-11
-3.0961e-10
4.33636e-11
-3.63102e-10
5.94801e-11
-4.15468e-10
7.77501e-11
-4.66211e-10
9.80967e-11
-5.14951e-10
1.20458e-10
-5.61456e-10
1.44785e-10
-6.05612e-10
1.71043e-10
-6.47369e-10
1.99212e-10
-6.8671e-10
2.29288e-10
-7.23632e-10
2.61287e-10
-7.58138e-10
2.95245e-10
-7.90234e-10
3.31224e-10
-8.19932e-10
3.69313e-10
-8.47252e-10
4.09627e-10
-8.72231e-10
4.52312e-10
-8.94928e-10
4.97539e-10
-9.15433e-10
5.455e-10
-9.33875e-10
5.96405e-10
-9.50437e-10
6.50465e-10
-9.65358e-10
-9.78947e-10
7.07883e-10
-3.18633e-13
-7.07475e-11
2.63946e-12
-1.46348e-10
8.61376e-12
-2.06367e-10
1.72768e-11
-2.64053e-10
2.84225e-11
-3.20757e-10
4.18896e-11
-3.7657e-10
5.75527e-11
-4.31131e-10
7.53139e-11
-4.83971e-10
9.50959e-11
-5.34731e-10
1.16837e-10
-5.83196e-10
1.40488e-10
-6.29261e-10
1.66011e-10
-6.72891e-10
1.93383e-10
-7.14081e-10
2.22595e-10
-7.52844e-10
2.53654e-10
-7.89197e-10
2.86586e-10
-8.23166e-10
3.21437e-10
-8.54783e-10
3.58273e-10
-8.84089e-10
3.97182e-10
-9.11141e-10
4.38274e-10
-9.3602e-10
4.81673e-10
-9.58833e-10
5.2752e-10
-9.79723e-10
5.75961e-10
-9.98877e-10
6.27135e-10
-1.01653e-09
-1.03298e-09
6.81168e-10
-3.64535e-13
-7.03863e-11
2.43404e-12
-1.4915e-10
8.17402e-12
-2.1211e-10
1.65392e-11
-2.7242e-10
2.73254e-11
-3.31545e-10
4.03728e-11
-3.89618e-10
5.55552e-11
-4.46312e-10
7.27749e-11
-5.0119e-10
9.19545e-11
-5.5391e-10
1.13031e-10
-6.04271e-10
1.35954e-10
-6.52183e-10
1.60683e-10
-6.97619e-10
1.8719e-10
-7.40587e-10
2.15458e-10
-7.81112e-10
2.45486e-10
-8.19225e-10
2.77287e-10
-8.54967e-10
3.10888e-10
-8.88384e-10
3.46334e-10
-9.19535e-10
3.83684e-10
-9.48492e-10
4.23012e-10
-9.75348e-10
4.64401e-10
-1.00022e-09
5.0794e-10
-1.02326e-09
5.53717e-10
-1.04466e-09
6.0181e-10
-1.06463e-09
-1.08344e-09
6.52272e-10
-4.04203e-13
-6.99854e-11
2.23957e-12
-1.51798e-10
7.74225e-12
-2.17616e-10
1.58001e-11
-2.8048e-10
2.6213e-11
-3.41959e-10
3.88211e-11
-4.02226e-10
5.34989e-11
-4.6099e-10
7.01484e-11
-5.17838e-10
8.86914e-11
-5.72451e-10
1.09064e-10
-6.24642e-10
1.31213e-10
-6.7433e-10
1.55094e-10
-7.21499e-10
1.80674e-10
-7.66166e-10
2.07928e-10
-8.08365e-10
2.36844e-10
-8.48141e-10
2.6742e-10
-8.85543e-10
2.99667e-10
-9.20631e-10
3.33606e-10
-9.53474e-10
3.6927e-10
-9.84156e-10
4.06697e-10
-1.01278e-09
4.45932e-10
-1.03946e-09
4.87017e-10
-1.06435e-09
5.29987e-10
-1.08763e-09
5.74863e-10
-1.1095e-09
-1.13022e-09
6.21638e-10
-4.36036e-13
-6.95527e-11
2.05563e-12
-1.54293e-10
7.31873e-12
-2.22882e-10
1.50622e-11
-2.88226e-10
2.50892e-11
-3.51987e-10
3.72419e-11
-4.14379e-10
5.13945e-11
-4.75142e-10
6.74489e-11
-5.33892e-10
8.53262e-11
-5.90327e-10
1.0496e-10
-6.44275e-10
1.26295e-10
-6.95664e-10
1.49283e-10
-7.44485e-10
1.73882e-10
-7.90764e-10
2.00061e-10
-8.34543e-10
2.27795e-10
-8.75875e-10
2.57069e-10
-9.14817e-10
2.87877e-10
-9.51438e-10
3.20216e-10
-9.85814e-10
3.54093e-10
-1.01803e-09
3.89516e-10
-1.0482e-09
4.26491e-10
-1.07643e-09
4.65021e-10
-1.10288e-09
5.05094e-10
-1.1277e-09
5.46679e-10
-1.15109e-09
-1.17326e-09
5.89718e-10
-4.61163e-13
-6.90949e-11
1.8821e-12
-1.5664e-10
6.90415e-12
-2.27907e-10
1.43271e-11
-2.95651e-10
2.39588e-11
-3.6162e-10
3.56423e-11
-4.26062e-10
4.92528e-11
-4.88752e-10
6.46916e-11
-5.49329e-10
8.18784e-11
-6.07512e-10
1.00745e-10
-6.6314e-10
1.21233e-10
-7.1615e-10
1.43287e-10
-7.66539e-10
1.66862e-10
-8.14338e-10
1.91916e-10
-8.59596e-10
2.18413e-10
-9.02372e-10
2.46325e-10
-9.42729e-10
2.75625e-10
-9.80739e-10
3.06295e-10
-1.01648e-09
3.38313e-10
-1.05005e-09
3.71661e-10
-1.08155e-09
4.06311e-10
-1.11108e-09
4.42229e-10
-1.1388e-09
4.79364e-10
-1.16483e-09
5.17642e-10
-1.18937e-09
-1.21257e-09
5.56957e-10
-4.79739e-13
-6.86185e-11
1.71815e-12
-1.58841e-10
6.49866e-12
-2.32691e-10
1.35972e-11
-3.02751e-10
2.28257e-11
-3.70849e-10
3.403e-11
-4.37267e-10
4.70851e-11
-5.01806e-10
6.18919e-11
-5.64135e-10
7.83691e-11
-6.23988e-10
9.64461e-11
-6.81216e-10
1.1606e-10
-7.35762e-10
1.37151e-10
-7.87629e-10
1.59667e-10
-8.36853e-10
1.83558e-10
-8.83486e-10
2.08776e-10
-9.2759e-10
2.3528e-10
-9.69232e-10
2.63028e-10
-1.00849e-09
2.91981e-10
-1.04544e-09
3.22096e-10
-1.08017e-09
3.53329e-10
-1.11278e-09
3.85624e-10
-1.14338e-09
4.18915e-10
-1.17209e-09
4.53118e-10
-1.19904e-09
4.88122e-10
-1.22437e-09
-1.24824e-09
5.23785e-10
-4.9306e-13
-6.81288e-11
1.56358e-12
-1.60902e-10
6.10303e-12
-2.37233e-10
1.28744e-11
-3.09525e-10
2.16953e-11
-3.79671e-10
3.24126e-11
-4.47984e-10
4.49028e-11
-5.14295e-10
5.90662e-11
-5.78297e-10
7.48197e-11
-6.3974e-10
9.20905e-11
-6.98485e-10
1.10811e-10
-7.54481e-10
1.30919e-10
-8.07735e-10
1.52352e-10
-8.58285e-10
1.75053e-10
-9.06186e-10
1.98965e-10
-9.51502e-10
2.24033e-10
-9.943e-10
2.50202e-10
-1.03466e-09
2.77413e-10
-1.07265e-09
3.05606e-10
-1.10836e-09
3.34714e-10
-1.14189e-09
3.64658e-10
-1.17332e-09
3.95344e-10
-1.20278e-09
4.26661e-10
-1.23035e-09
4.5847e-10
-1.25618e-09
-1.28037e-09
4.90599e-10
-5.00729e-13
-6.76315e-11