/*--------------------------------*- C++ -*----------------------------------*\
  =========                 |
  \\      /  F ield         | OpenFOAM: The Open Source CFD Toolbox
   \\    /   O peration     | Website:  https://openfoam.org
    \\  /    A nd           | Version:  13
     \\/     M anipulation  |
\*---------------------------------------------------------------------------*/
FoamFile
{
    format      ascii;
    class       surfaceScalarField;
    location    "21";
    object      phi;
}
// * * * * * * * * * * * * * * * * * * * * * * * * * * * * * * * * * * * * * //

dimensions      [0 3 -1 0 0 0 0];

internalField   nonuniform List<scalar> 
12590
(
6.04217e-08
-5.77104e-08
1.43458e-07
-8.0602e-08
2.06513e-07
-6.2312e-08
2.50691e-07
-4.24701e-08
2.8905e-07
-3.83581e-08
3.2794e-07
-3.76977e-08
3.69154e-07
-4.05122e-08
4.0916e-07
-3.99217e-08
4.54704e-07
-4.38709e-08
5.11287e-07
-5.71558e-08
5.83925e-07
-7.07179e-08
6.6335e-07
-7.93586e-08
7.44245e-07
-7.90614e-08
8.13642e-07
-6.81954e-08
8.62745e-07
-4.73293e-08
8.84368e-07
-1.98473e-08
8.76189e-07
9.70384e-09
8.39378e-07
3.86039e-08
7.74076e-07
6.64539e-08
6.80491e-07
9.50739e-08
5.61925e-07
1.19694e-07
4.21373e-07
1.40764e-07
2.68399e-07
1.54374e-07
1.192e-07
1.48845e-07
1.19177e-07
7.7092e-08
-1.33961e-07
1.08935e-07
-1.11619e-07
1.25023e-07
-7.68104e-08
1.48462e-07
-6.6643e-08
1.83904e-07
-7.08852e-08
1.99039e-07
-5.45513e-08
2.10262e-07
-4.98556e-08
2.31975e-07
-6.25642e-08
2.77916e-07
-8.9734e-08
3.42661e-07
-1.21711e-07
4.21678e-07
-1.50074e-07
5.11301e-07
-1.68109e-07
6.01162e-07
-1.68009e-07
6.79925e-07
-1.45324e-07
7.37936e-07
-1.03537e-07
7.6899e-07
-4.89044e-08
7.69533e-07
1.11016e-08
7.44799e-07
6.5046e-08
6.94905e-07
1.17757e-07
6.22886e-07
1.68207e-07
5.2835e-07
2.15189e-07
4.14486e-07
2.55782e-07
2.84032e-07
2.84168e-07
1.41942e-07
2.91236e-07
2.60938e-07
-8.3195e-09
-1.26181e-07
-6.85062e-08
-5.21588e-08
-1.38743e-07
-6.79414e-09
-1.8863e-07
-1.73577e-08
-2.11341e-07
-4.85143e-08
-2.01417e-07
-6.56761e-08
-1.63532e-07
-8.79523e-08
-1.03944e-07
-1.24229e-07
-2.513e-08
-1.68678e-07
6.57479e-08
-2.14999e-07
1.67692e-07
-2.52335e-07
2.66655e-07
-2.67237e-07
3.57453e-07
-2.58486e-07
4.38226e-07
-2.24273e-07
4.98381e-07
-1.62231e-07
5.29532e-07
-7.71903e-08
5.25512e-07
1.74699e-08
5.07024e-07
8.58301e-08
4.76326e-07
1.49859e-07
4.2945e-07
2.1629e-07
3.63698e-07
2.81789e-07
2.80679e-07
3.38555e-07
1.86307e-07
3.79748e-07
8.09518e-08
3.95978e-07
3.41956e-07
-1.00444e-07
-2.67888e-08
-2.29234e-07
7.59143e-08
-3.12513e-07
7.59514e-08
-3.55643e-07
2.47608e-08
-3.78562e-07
-2.6341e-08
-3.8373e-07
-6.17158e-08
-3.71226e-07
-1.01186e-07
-3.45107e-07
-1.51715e-07
-3.06878e-07
-2.07574e-07
-2.58409e-07
-2.6483e-07
-1.95065e-07
-3.1587e-07
-1.11379e-07
-3.5194e-07
-5.09193e-09
-3.64073e-07
1.09755e-07
-3.3845e-07
2.08881e-07
-2.59017e-07
2.67161e-07
-1.32299e-07
2.78863e-07
9.07393e-09
2.58472e-07
1.09137e-07
2.38414e-07
1.71998e-07
2.11235e-07
2.44849e-07
1.72232e-07
3.21627e-07
1.23431e-07
3.88771e-07
6.62431e-08
4.36333e-07
1.30898e-08
4.49763e-07
3.55082e-07
-1.62941e-07
1.36053e-07
-3.09376e-07
2.21833e-07
-4.05202e-07
1.71353e-07
-4.6422e-07
8.29425e-08
-5.00464e-07
9.32682e-09
-5.20554e-07
-4.24595e-08
-5.30891e-07
-9.12894e-08
-5.35064e-07
-1.4831e-07
-5.31555e-07
-2.11261e-07
-5.1936e-07
-2.7762e-07
-4.94639e-07
-3.40625e-07
-4.54408e-07
-3.92273e-07
-3.94975e-07
-4.23168e-07
-3.1222e-07
-4.20613e-07
-2.01016e-07
-3.69158e-07
-7.87173e-08
-2.52554e-07
8.25395e-09
-7.49906e-08
2.69339e-08
9.48357e-08
2.00845e-08
1.81127e-07
1.69634e-08
2.49794e-07
9.0165e-09
3.30653e-07
-8.23401e-09
4.06174e-07
-2.37141e-08
4.53382e-07
-2.97239e-08
4.55721e-07
3.25757e-07
-2.06794e-07
3.42755e-07
-3.6892e-07
3.83755e-07
-4.83243e-07
2.8533e-07
-5.56162e-07
1.55378e-07
-6.0014e-07
5.29406e-08
-6.31148e-07
-1.19151e-08
-6.62017e-07
-6.0393e-08
-6.91412e-07
-1.19202e-07
-7.15682e-07
-1.86755e-07
-7.34149e-07
-2.59145e-07
-7.42779e-07
-3.31533e-07
-7.37644e-07
-3.97071e-07
-7.1251e-07
-4.47732e-07
-6.59589e-07
-4.72779e-07
-5.68676e-07
-4.59267e-07
-4.33151e-07
-3.86956e-07
-2.68692e-07
-2.38104e-07
-1.42197e-07
-2.97026e-08
-1.06304e-07
1.4698e-07
-1.03191e-07
2.48157e-07
-9.21209e-08
3.20387e-07
-8.08751e-08
3.96372e-07
-7.05735e-08
4.42966e-07
-5.16432e-08
4.3822e-07
2.74668e-07
-2.27948e-07
5.70495e-07
-4.14929e-07
5.7043e-07
-5.49118e-07
4.19123e-07
-6.28045e-07
2.33823e-07
-6.70482e-07
9.50877e-08
-7.11465e-07
2.87736e-08
-7.59806e-07
-1.19598e-08
-8.08707e-07
-7.0308e-08
-8.55576e-07
-1.39318e-07
-8.99364e-07
-2.15061e-07
-9.36896e-07
-2.93282e-07
-9.64853e-07
-3.68524e-07
-9.75446e-07
-4.36386e-07
-9.58202e-07
-4.89252e-07
-8.99384e-07
-5.17387e-07
-7.82302e-07
-5.0316e-07
-5.95171e-07
-4.24476e-07
-3.65073e-07
-2.58633e-07
-2.02028e-07
-1.47834e-08
-1.53177e-07
2.0063e-07
-1.35198e-07
3.0386e-07
-1.08513e-07
3.70354e-07
-8.32292e-08
4.19879e-07
-5.20485e-08
4.08293e-07
2.24124e-07
-2.20322e-07
7.90268e-07
-4.34457e-07
7.83984e-07
-5.91004e-07
5.75136e-07
-6.77559e-07
3.19774e-07
-7.15107e-07
1.32153e-07
-7.63502e-07
7.67329e-08
-8.19983e-07
4.46526e-08
-8.83303e-07
-6.88562e-09
-9.5038e-07
-7.16254e-08
-1.01483e-06
-1.50071e-07
-1.0768e-06
-2.30404e-07
-1.13344e-06
-3.11154e-07
-1.17713e-06
-3.91837e-07
-1.19753e-06
-4.68134e-07
-1.18172e-06
-5.32529e-07
-1.11193e-06
-5.72276e-07
-9.64893e-07
-5.71009e-07
-7.23575e-07
-4.99243e-07
-4.17001e-07
-3.20674e-07
-1.85715e-07
-2.91327e-08
-1.14228e-07
2.3387e-07
-8.86756e-08
3.47415e-07
-6.25976e-08
3.94974e-07
-3.02894e-08
3.80066e-07
1.96055e-07
-1.85314e-07
9.74884e-07
-4.05081e-07
1.00304e-06
-5.8437e-07
7.53826e-07
-6.94465e-07
4.29124e-07
-7.45201e-07
1.82374e-07
-7.93794e-07
1.24867e-07
-8.52131e-07
1.0302e-07
-9.25204e-07
6.64239e-08
-1.00446e-06
8.32925e-09
-1.08604e-06
-6.77126e-08
-1.16787e-06
-1.47555e-07
-1.24616e-06
-2.31962e-07
-1.31494e-06
-3.22123e-07
-1.36631e-06
-4.16051e-07
-1.38958e-06
-5.08605e-07
-1.36949e-06
-5.91872e-07
-1.28677e-06
-6.53346e-07
-1.11322e-06
-6.72416e-07
-8.23209e-07
-6.1016e-07
-4.37095e-07
-4.14415e-07
-1.36793e-07
-6.4523e-08
-4.21732e-08
2.54681e-07
-1.9781e-08
3.77258e-07
-2.15977e-10
3.65318e-07
1.98372e-07
-1.27114e-07
1.10118e-06
-3.1519e-07
1.19032e-06
-5.05893e-07
9.4389e-07
-6.54686e-07
5.77173e-07
-7.43327e-07
2.70503e-07
-7.93711e-07
1.74759e-07
-8.55821e-07
1.65253e-07
-9.38971e-07
1.49873e-07
-1.02798e-06
9.81476e-08
-1.12261e-06
2.78485e-08
-1.21894e-06
-5.00911e-08
-1.31248e-06
-1.37353e-07
-1.39764e-06
-2.36013e-07
-1.46826e-06
-3.44707e-07
-1.51659e-06
-4.59708e-07
-1.53268e-06
-5.7543e-07
-1.50183e-06
-6.83941e-07
-1.40226e-06
-7.71729e-07
-1.20147e-06
-8.107e-07
-8.66502e-07
-7.48816e-07
-4.14555e-07
-5.15597e-07
-7.34699e-08
-8.34056e-08
1.63254e-08
2.90944e-07
2.50562e-08
3.61175e-07
2.27295e-07
-6.04174e-08
1.16047e-06
-1.83909e-07
1.31277e-06
-3.58015e-07
1.1171e-06
-5.39251e-07
7.57533e-07
-6.75807e-07
4.06346e-07
-7.51862e-07
2.50293e-07
-8.23193e-07
2.36672e-07
-9.15232e-07
2.42243e-07
-1.0212e-06
2.04883e-07
-1.13115e-06
1.38871e-07
-1.23935e-06
5.93456e-08
-1.34307e-06
-3.25306e-08
-1.43741e-06
-1.40721e-07
-1.51743e-06
-2.64047e-07
-1.57719e-06
-3.99517e-07
-1.61015e-06
-5.42263e-07
-1.60814e-06
-6.85837e-07
-1.55777e-06
-8.2207e-07
-1.43296e-06
-9.35379e-07
-1.19698e-06
-9.84641e-07
-8.14179e-07
-8.9774e-07
-3.13146e-07
-5.83332e-07
9.02873e-09
-2.99759e-08
3.6809e-08
3.43666e-07
2.65471e-07
1.52003e-10
1.15864e-06
-5.84546e-08
1.36982e-06
-1.79769e-07
1.23714e-06
-3.57115e-07
9.33597e-07
-5.30024e-07
5.78236e-07
-6.44502e-07
3.64015e-07
-7.35095e-07
3.27065e-07
-8.40274e-07
3.47773e-07
-9.67066e-07
3.32559e-07
-1.09985e-06
2.72676e-07
-1.22597e-06
1.86703e-07
-1.34203e-06
8.47285e-08
-1.44355e-06
-3.82807e-08
-1.52646e-06
-1.80597e-07
-1.58784e-06
-3.37871e-07
-1.62319e-06
-5.06885e-07
-1.62792e-06
-6.8117e-07
-1.59642e-06
-8.53676e-07
-1.5172e-06
-1.01476e-06
-1.36027e-06
-1.14147e-06
-1.08167e-06
-1.17618e-06
-6.48981e-07
-1.0162e-06
-1.41031e-07
-5.31651e-07
4.16563e-08
1.60977e-07
3.12216e-07
4.4133e-08
1.11217e-06
3.43576e-08
1.37759e-06
-2.27997e-08
1.29273e-06
-1.56013e-07
1.06525e-06
-3.37693e-07
7.58623e-07
-4.87734e-07
5.1304e-07
-5.98022e-07
4.37228e-07
-7.1918e-07
4.6919e-07
-8.71654e-07
4.85743e-07
-1.02862e-06
4.30873e-07
-1.17608e-06
3.35494e-07
-1.30756e-06
2.17377e-07
-1.41607e-06
7.11661e-08
-1.49834e-06
-9.7851e-08
-1.55533e-06
-2.8073e-07
-1.58721e-06
-4.75111e-07
-1.5923e-06
-6.76284e-07
-1.56786e-06
-8.78394e-07
-1.5077e-06
-1.07503e-06
-1.39316e-06
-1.2561e-06
-1.19015e-06
-1.37886e-06
-8.5521e-07
-1.35036e-06
-3.78811e-07
-1.01045e-06
1.45498e-08
-2.20925e-07
3.26218e-07
7.56218e-08
1.03333e-06
1.01798e-07
1.34908e-06
8.92992e-08
1.30335e-06
1.25812e-08
1.14044e-06
-1.39467e-07
9.09497e-07
-3.06879e-07
6.79655e-07
-4.26757e-07
5.56603e-07
-5.73155e-07
6.15956e-07
-7.57204e-07
6.7077e-07
-9.34478e-07
6.09326e-07
-1.09721e-06
4.99636e-07
-1.23752e-06
3.58883e-07
-1.34634e-06
1.8098e-07
-1.42026e-06
-2.36304e-08
-1.46434e-06
-2.36591e-07
-1.4853e-06
-4.54458e-07
-1.48497e-06
-6.769e-07
-1.46363e-06
-8.99975e-07
-1.41633e-06
-1.12269e-06
-1.332e-06
-1.34009e-06
-1.18204e-06
-1.52928e-06
-9.25292e-07
-1.60798e-06
-5.20742e-07
-1.41052e-06
-7.01433e-08
-6.74773e-07
2.60856e-07
9.53679e-08
9.34726e-07
1.47327e-07
1.29456e-06
1.68906e-07
1.27992e-06
1.39781e-07
1.16818e-06
3.56843e-08
1.01266e-06
-1.11254e-07
8.25789e-07
-2.46144e-07
6.9176e-07
-4.41675e-07
8.11884e-07
-6.50549e-07
8.80546e-07
-8.3602e-07
7.96291e-07
-1.00179e-06
6.66607e-07
-1.1373e-06
4.95654e-07
-1.23381e-06
2.77949e-07
-1.28787e-06
3.05416e-08
-1.31106e-06
-2.13952e-07
-1.31593e-06
-4.50175e-07
-1.30641e-06
-6.86995e-07
-1.28521e-06
-9.2172e-07
-1.24983e-06
-1.15849e-06
-1.18993e-06
-1.40046e-06
-1.08626e-06
-1.63331e-06
-8.9508e-07
-1.79876e-06
-5.69976e-07
-1.73961e-06
-1.09296e-07
-1.12864e-06
1.48038e-07
9.20025e-08
8.37501e-07
1.75203e-07
1.20776e-06
2.3801e-07
1.21496e-06
2.51284e-07
1.15326e-06
1.92088e-07
1.07112e-06
7.38033e-08
9.43655e-07
-1.16307e-07
8.82163e-07
-3.60422e-07
1.05647e-06
-5.66614e-07
1.08788e-06
-7.44124e-07
9.74895e-07
-8.98236e-07
8.21601e-07
-1.01587e-06
6.13966e-07
-1.08751e-06
3.49292e-07
-1.11423e-06
5.6393e-08
-1.11607e-06
-2.13715e-07
-1.10667e-06
-4.61171e-07
-1.08761e-06
-7.07215e-07
-1.06464e-06
-9.4634e-07
-1.03976e-06
-1.18451e-06
-1.00651e-06
-1.43481e-06
-9.41909e-07
-1.69963e-06
-8.11931e-07
-1.93122e-06
-5.72959e-07
-1.97585e-06
-1.65331e-07
-1.5414e-06
-1.67386e-08
8.17339e-08
7.49942e-07
2.0665e-07
1.07921e-06
3.16005e-07
1.10204e-06
3.5808e-07
1.11005e-06
3.10931e-07
1.11647e-06
1.68723e-07
1.08602e-06
-8.43408e-08
1.13456e-06
-3.23257e-07
1.29617e-06
-5.0035e-07
1.26586e-06
-6.56399e-07
1.13127e-06
-7.87043e-07
9.53861e-07
-8.79397e-07
7.05462e-07
-9.2238e-07
3.92626e-07
-9.28398e-07
5.86187e-08
-9.21816e-07
-2.22805e-07
-9.05855e-07
-4.80434e-07
-8.76986e-07
-7.39054e-07
-8.43189e-07
-9.82795e-07
-8.14654e-07
-1.21482e-06
-7.95521e-07
-1.45654e-06
-7.68871e-07
-1.72768e-06
-6.99725e-07
-2.00053e-06
-5.55349e-07
-2.12552e-06
-2.58313e-07
-1.83688e-06
-2.81959e-07
9.69114e-08
6.41932e-07
2.711e-07
8.97528e-07
4.05806e-07
9.64274e-07
4.31931e-07
1.0809e-06
3.46183e-07
1.20072e-06
1.49192e-07
1.2812e-06
-1.11025e-07
1.39511e-06
-2.96589e-07
1.48213e-06
-4.34922e-07
1.4048e-06
-5.60698e-07
1.25951e-06
-6.65347e-07
1.05876e-06
-7.31848e-07
7.74054e-07
-7.58495e-07
4.16161e-07
-7.60889e-07
6.00104e-08
-7.64522e-07
-2.24123e-07
-7.49636e-07
-4.98664e-07
-7.13086e-07
-7.79359e-07
-6.63416e-07
-1.03486e-06
-6.18827e-07
-1.26249e-06
-5.93292e-07
-1.48331e-06
-5.84037e-07
-1.73806e-06
-5.57811e-07
-2.03121e-06
-4.75689e-07
-2.20581e-06
-2.98479e-07
-2.02369e-06
-5.82752e-07
1.46255e-07
4.88462e-07
3.74083e-07
6.63467e-07
4.73945e-07
8.59955e-07
4.28743e-07
1.12227e-06
2.8128e-07
1.34605e-06
6.94187e-08
1.49139e-06
-1.32483e-07
1.59629e-06
-2.56691e-07
1.6067e-06
-3.56262e-07
1.50606e-06
-4.50454e-07
1.35513e-06
-5.25716e-07
1.13602e-06
-5.71334e-07
8.21018e-07
-5.87858e-07
4.34761e-07
-6.02836e-07
7.2978e-08
-6.16489e-07
-2.11746e-07
-6.05168e-07
-5.12529e-07
-5.6748e-07
-8.18608e-07
-5.12841e-07
-1.09157e-06
-4.57995e-07
-1.31802e-06
-4.25375e-07
-1.51679e-06
-4.28691e-07
-1.73787e-06
-4.48619e-07
-2.01075e-06
-4.32506e-07
-2.22984e-06
-3.17337e-07
-2.1402e-06
-8.99983e-07
2.23165e-07
2.43872e-07
4.61293e-07
4.16448e-07
4.56789e-07
8.59588e-07
3.36792e-07
1.23998e-06
1.72318e-07
1.50643e-06
5.63324e-09
1.65648e-06
-1.17163e-07
1.71803e-06
-1.90768e-07
1.68016e-06
-2.52801e-07
1.56842e-06
-3.11544e-07
1.41449e-06
-3.56734e-07
1.18436e-06
-3.85004e-07
8.50758e-07
-4.00282e-07
4.51852e-07
-4.13443e-07
8.8019e-08
-4.19198e-07
-2.05402e-07
-4.08348e-07
-5.23207e-07
-3.77285e-07
-8.50001e-07
-3.3246e-07
-1.13647e-06
-2.90857e-07
-1.36002e-06
-2.75328e-07
-1.53362e-06
-3.08145e-07
-1.70519e-06
-4.03777e-07
-1.91936e-06
-5.08e-07
-2.12484e-06
-5.56438e-07
-2.09094e-06
-1.4557e-06
2.98777e-07
-6.17672e-08
4.55091e-07
2.56097e-07
4.08248e-07
9.03902e-07
3.18289e-07
1.32583e-06
2.31196e-07
1.59263e-06
1.65258e-07
1.71986e-06
1.30574e-07
1.75105e-06
1.19326e-07
1.69016e-06
1.02957e-07
1.58417e-06
7.36222e-08
1.44449e-06
2.65312e-08
1.23015e-06
-3.63158e-08
9.16004e-07
-1.08845e-07
5.25403e-07
-1.75758e-07
1.56212e-07
-2.29862e-07
-1.51811e-07
-3.10071e-07
-4.43017e-07
-3.81374e-07
-7.78799e-07
-4.40788e-07
-1.07742e-06
-4.99355e-07
-1.30201e-06
-5.78754e-07
-1.4547e-06
-7.18844e-07
-1.56645e-06
-9.72282e-07
-1.66578e-06
-1.32249e-06
-1.77356e-06
-1.64358e-06
-1.76909e-06
-1.25138e-06
-1.84371e-06
2.7934e-07
-3.47972e-07
3.38321e-07
1.93855e-07
2.94851e-07
9.45244e-07
2.44198e-07
1.37672e-06
2.07725e-07
1.62574e-06
1.92108e-07
1.73399e-06
2.02409e-07
1.73908e-06
2.27124e-07
1.66407e-06
2.46881e-07
1.56309e-06
2.54728e-07
1.43495e-06
2.44125e-07
1.24184e-06
2.03184e-07
9.55043e-07
1.36851e-07
5.90953e-07
6.72203e-08
2.22419e-07
4.42262e-08
-1.31761e-07
-4.36565e-09
-3.95885e-07
-6.69095e-08
-7.17385e-07
-1.31091e-07
-1.01442e-06
-2.00317e-07
-1.23393e-06
-2.78695e-07
-1.37741e-06
-3.66786e-07
-1.47865e-06
-4.96165e-07
-1.53605e-06
-7.09239e-07
-1.55995e-06
-9.4307e-07
-1.53075e-06
-1.29021e-06
-9.03933e-07
1.83042e-07
-5.27991e-07
2.19293e-07
1.59853e-07
2.13867e-07
9.51845e-07
2.05576e-07
1.38289e-06
2.18529e-07
1.61326e-06
2.46269e-07
1.70466e-06
2.91836e-07
1.69187e-06
3.44266e-07
1.61008e-06
3.95541e-07
1.51054e-06
4.4033e-07
1.3897e-06
4.66047e-07
1.21358e-06
4.60786e-07
9.59607e-07
4.21709e-07
6.2751e-07
3.66271e-07
2.74876e-07
3.166e-07
-8.6265e-08
2.90453e-07
-3.72329e-07
2.49931e-07
-6.78815e-07
1.95796e-07
-9.62018e-07
1.29055e-07
-1.16869e-06
4.67733e-08
-1.29603e-06
-3.54167e-08
-1.39705e-06
-1.01345e-07
-1.46993e-06
-1.87208e-07
-1.47102e-06
-2.96419e-07
-1.42216e-06
-1.35618e-06
-2.2957e-07
8.11902e-08
-6.02125e-07
1.50592e-07
9.45775e-08
1.8517e-07
9.18278e-07
2.19432e-07
1.35067e-06
2.63942e-07
1.5673e-06
3.21567e-07
1.64614e-06
3.89021e-07
1.62317e-06
4.61177e-07
1.53658e-06
5.36753e-07
1.43374e-06
6.10863e-07
1.31389e-06
6.72442e-07
1.15154e-06
7.03786e-07
9.26198e-07
6.95877e-07
6.33077e-07
6.65388e-07
3.01762e-07
6.24858e-07
-4.9412e-08
6.01338e-07
-3.51345e-07
5.68396e-07
-6.47793e-07
5.18638e-07
-9.13884e-07
4.55087e-07
-1.10647e-06
3.81146e-07
-1.22308e-06
3.07358e-07
-1.32362e-06
2.52686e-07
-1.41464e-06
2.1705e-07
-1.43582e-06
2.07045e-07
-1.41028e-06
-1.43513e-06
2.84547e-07
1.03807e-08
-6.03428e-07
1.28442e-07
-1.68521e-08
2.0219e-07
8.47486e-07
2.64388e-07
1.28821e-06
3.31704e-07
1.50094e-06
4.06458e-07
1.5706e-06
4.87344e-07
1.54117e-06
5.71776e-07
1.45088e-06
6.6237e-07
1.34203e-06
7.56775e-07
1.21875e-06
8.44472e-07
1.06244e-06
9.10608e-07
8.58217e-07
9.42698e-07
5.98788e-07
9.46112e-07
2.95607e-07
9.25888e-07
-3.22983e-08
9.05724e-07
-3.33492e-07
8.73306e-07
-6.17191e-07
8.23539e-07
-8.65632e-07
7.58281e-07
-1.04246e-06
6.86668e-07
-1.15229e-06
6.24031e-07
-1.26141e-06
5.83187e-07
-1.37411e-06
5.70142e-07
-1.4218e-06
5.92033e-07
-1.43349e-06
-1.51699e-06
6.73365e-07
-1.46913e-08
-5.78178e-07
1.44202e-07
-1.67601e-07
2.49182e-07
7.44779e-07
3.32331e-07
1.20742e-06
4.12179e-07
1.42048e-06
4.95782e-07
1.48673e-06
5.82427e-07
1.45353e-06
6.72112e-07
1.36027e-06
7.69024e-07
1.24431e-06
8.72475e-07
1.11447e-06
9.74819e-07
9.5867e-07
1.065e-06
7.67179e-07
1.12913e-06
5.32556e-07
1.16316e-06
2.59017e-07
1.16644e-06
-3.82333e-08
1.15578e-06
-3.24861e-07
1.12823e-06
-5.91263e-07
1.08218e-06
-8.20941e-07
1.01959e-06
-9.8097e-07
9.5438e-07
-1.0879e-06
9.05179e-07
-1.2127e-06
8.79127e-07
-1.34808e-06
8.79072e-07
-1.42259e-06
9.18799e-07
-1.47298e-06
-1.60701e-06
1.00771e-06
-2.79525e-08
-5.39697e-07
1.63864e-07
-3.48583e-07
3.067e-07
6.0526e-07
4.0862e-07
1.1057e-06
4.98698e-07
1.33135e-06
5.85282e-07
1.39963e-06
6.71788e-07
1.36619e-06
7.60388e-07
1.27094e-06
8.56005e-07
1.148e-06
9.59336e-07
1.0104e-06
1.06559e-06
8.52504e-07
1.16459e-06
6.66122e-07
1.24643e-06
4.49281e-07
1.30187e-06
2.01677e-07
1.32684e-06
-6.51704e-08
1.33021e-06
-3.2983e-07
1.31448e-06
-5.76868e-07
1.27823e-06
-7.85835e-07
1.22446e-06
-9.28168e-07
1.1745e-06
-1.03864e-06
1.14658e-06
-1.18524e-06
1.13777e-06
-1.33974e-06
1.15111e-06
-1.43575e-06
1.20444e-06
-1.52739e-06
-1.70652e-06
1.30355e-06
-2.75652e-08
-5.00207e-07
1.29502e-07
-4.93128e-07
3.42845e-07
3.94553e-07
4.81847e-07
9.6859e-07
5.84728e-07
1.22815e-06
6.72667e-07
1.31112e-06
7.5469e-07
1.28362e-06
8.36482e-07
1.1884e-06
9.24597e-07
1.05963e-06
1.02108e-06
9.14048e-07
1.12101e-06
7.5099e-07
1.2193e-06
5.68128e-07
1.30577e-06
3.6145e-07
1.37253e-06
1.33401e-07
1.41453e-06
-1.08678e-07
1.43449e-06
-3.51037e-07
1.43476e-06
-5.78217e-07
1.41116e-06
-7.6318e-07
1.37296e-06
-8.90776e-07
1.3495e-06
-1.01581e-06
1.35036e-06
-1.18652e-06
1.36163e-06
-1.35117e-06
1.38945e-06
-1.46433e-06
1.46025e-06
-1.59814e-06
-1.81815e-06
1.57114e-06
-3.02888e-08
-4.6014e-07
4.11989e-08
-5.54687e-07
3.4526e-07
9.3896e-08
5.39919e-07
7.74125e-07
6.66176e-07
1.1025e-06
7.57398e-07
1.21952e-06
8.32222e-07
1.20822e-06
9.02443e-07
1.11785e-06
9.77039e-07
9.84959e-07
1.05973e-06
8.30947e-07
1.14948e-06
6.62564e-07
1.23872e-06
4.77287e-07
1.32285e-06
2.76786e-07
1.39365e-06
6.16766e-08
1.44738e-06
-1.63377e-07
1.48316e-06
-3.87714e-07
1.49807e-06
-5.93932e-07
1.48859e-06
-7.54441e-07
1.47708e-06
-8.79924e-07
1.49279e-06
-1.03202e-06
1.52567e-06
-1.21975e-06
1.55626e-06
-1.38215e-06
1.60335e-06
-1.51136e-06
1.69437e-06
-1.68998e-06
-1.93821e-06
1.81421e-06
-2.20626e-08
-4.28775e-07
-2.14914e-08
-5.48613e-07
2.97985e-07
-2.21568e-07
5.7055e-07
5.0397e-07
7.36122e-07
9.36571e-07
8.38091e-07
1.11764e-06
9.06355e-07
1.1396e-06
9.61631e-07
1.0626e-06
1.01745e-06
9.29418e-07
1.0818e-06
7.67556e-07
1.15389e-06
5.89278e-07
1.23225e-06
4.00344e-07
1.30919e-06
1.99241e-07
1.38002e-06
-9.83126e-09
1.44186e-06
-2.25888e-07
1.49008e-06
-4.36579e-07
1.51607e-06
-6.20539e-07
1.529e-06
-7.6794e-07
1.56206e-06
-9.13495e-07
1.62319e-06
-1.09354e-06
1.68179e-06
-1.27864e-06
1.72924e-06
-1.42972e-06
1.79903e-06
-1.58176e-06
1.91034e-06
-1.80127e-06
-2.05719e-06
2.02878e-06
-2.40415e-08
-3.97304e-07
-5.40442e-08
-5.11455e-07
1.50939e-07
-4.19126e-07
5.30123e-07
1.25425e-07
7.73692e-07
6.94326e-07
9.06505e-07
9.85139e-07
9.7631e-07
1.07018e-06
1.01771e-06
1.02175e-06
1.05209e-06
8.95705e-07
1.09235e-06
7.2771e-07
1.14478e-06
5.39236e-07
1.20557e-06
3.3808e-07
1.27262e-06
1.32538e-07
1.34201e-06
-7.94111e-08
1.40902e-06
-2.93289e-07
1.46634e-06
-4.94345e-07
1.51352e-06
-6.68162e-07
1.5712e-06
-8.26056e-07
1.65822e-06
-1.0009e-06
1.75188e-06
-1.18751e-06
1.8213e-06
-1.34828e-06
1.88436e-06
-1.49305e-06
1.98031e-06
-1.67766e-06
2.10333e-06
-1.92489e-06
-2.15926e-06
2.20523e-06
3.52081e-08
-4.2355e-07
5.91237e-08
-5.28675e-07
9.33858e-08
-4.49139e-07
4.04349e-07
-1.80332e-07
7.44078e-07
3.56533e-07
9.41984e-07
7.88304e-07
1.0325e-06
9.80857e-07
1.06941e-06
9.85921e-07
1.08469e-06
8.82075e-07
1.10089e-06
7.13197e-07
1.12783e-06
5.11017e-07
1.17128e-06
2.97482e-07
1.22598e-06
7.74213e-08
1.29382e-06
-1.47468e-07
1.36843e-06
-3.6811e-07
1.44534e-06
-5.715e-07
1.53298e-06
-7.56074e-07
1.64603e-06
-9.39378e-07
1.7699e-06
-1.12502e-06
1.86776e-06
-1.28558e-06
1.93828e-06
-1.41895e-06
2.02322e-06
-1.57805e-06
2.14297e-06
-1.79782e-06
2.26251e-06
-2.04441e-06
-2.22949e-06
2.33237e-06
9.67771e-08
-5.15399e-07
1.88515e-07
-6.16139e-07
2.24242e-07
-4.78432e-07
3.31426e-07
-2.81614e-07
6.35876e-07
5.48531e-08
9.10027e-07
5.1703e-07
1.05328e-06
8.39621e-07
1.10271e-06
9.38741e-07
1.1096e-06
8.76824e-07
1.10651e-06
7.17501e-07
1.1152e-06
5.06419e-07
1.1386e-06
2.71705e-07
1.18551e-06
3.1561e-08
1.25824e-06
-2.2001e-07
1.35207e-06
-4.6199e-07
1.46505e-06
-6.84603e-07
1.5997e-06
-8.90869e-07
1.74353e-06
-1.08338e-06
1.86352e-06
-1.24517e-06
1.94742e-06
-1.36961e-06
2.0298e-06
-1.50142e-06
2.14585e-06
-1.69427e-06
2.27785e-06
-1.92974e-06
2.37337e-06
-2.14034e-06
-2.26225e-06
2.40603e-06
1.50862e-07
-6.60764e-07
2.80147e-07
-7.40946e-07
3.68663e-07
-5.62615e-07
3.92072e-07
-3.00642e-07
5.26692e-07
-7.10983e-08
7.88495e-07
2.58908e-07
9.87774e-07
6.43594e-07
1.0697e-06
8.59579e-07
1.093e-06
8.56848e-07
1.0904e-06
7.23235e-07
1.09021e-06
5.04433e-07
1.10943e-06
2.56654e-07
1.15745e-06
-1.67637e-08
1.24546e-06
-3.07851e-07
1.36569e-06
-5.82067e-07
1.50996e-06
-8.28771e-07
1.6629e-06
-1.0438e-06
1.7971e-06
-1.2176e-06
1.89724e-06
-1.34535e-06
1.98779e-06
-1.46021e-06
2.10749e-06
-1.62115e-06
2.25085e-06
-1.83759e-06
2.36853e-06
-2.04766e-06
2.4241e-06
-2.19583e-06
-2.26726e-06
2.42886e-06
1.77135e-07
-8.34991e-07
3.03155e-07
-8.6421e-07
3.91452e-07
-6.47165e-07
4.49614e-07
-3.49977e-07
4.86788e-07
-1.02807e-07
6.32126e-07
1.20352e-07
8.34695e-07
4.459e-07
9.63122e-07
7.35591e-07
1.0113e-06
8.12044e-07
1.02199e-06
7.14395e-07
1.03248e-06
4.99953e-07
1.05185e-06
2.36021e-07
1.10766e-06
-7.05322e-08
1.2075e-06
-4.06635e-07
1.34459e-06
-7.18499e-07
1.5014e-06
-9.85177e-07
1.65134e-06
-1.19347e-06
1.77682e-06
-1.3429e-06
1.89126e-06
-1.45968e-06
2.02696e-06
-1.59583e-06
2.18666e-06
-1.78078e-06
2.32558e-06
-1.97655e-06
2.40575e-06
-2.12769e-06
2.42829e-06
-2.21863e-06
-2.2608e-06
2.42181e-06
1.56905e-07
-9.89099e-07
2.49607e-07
-9.53713e-07
3.10855e-07
-7.03799e-07
3.61878e-07
-3.97021e-07
3.94393e-07
-1.22227e-07
4.4948e-07
7.33805e-08
5.91563e-07
3.09869e-07
7.31881e-07
6.00521e-07
8.14689e-07
7.34541e-07
8.63872e-07
6.71116e-07
8.91355e-07
4.73297e-07
9.09981e-07
2.2334e-07
9.58234e-07
-1.15651e-07
1.07184e-06
-5.18299e-07
1.24088e-06
-8.86392e-07
1.42589e-06
-1.16943e-06
1.5964e-06
-1.36347e-06
1.75261e-06
-1.49875e-06
1.91566e-06
-1.62248e-06
2.09151e-06
-1.7715e-06
2.24736e-06
-1.93652e-06
2.346e-06
-2.07505e-06
2.38284e-06
-2.16464e-06
2.38393e-06
-2.21956e-06
-2.25796e-06
2.38095e-06
9.18987e-08
-1.07924e-06
1.21626e-07
-9.81206e-07
1.18248e-07
-6.9668e-07
1.23541e-07
-3.89609e-07
1.64452e-07
-1.5545e-07
2.03516e-07
4.73463e-08
2.72453e-07
2.49841e-07
3.82856e-07
4.97524e-07
4.89603e-07
6.34313e-07
5.71756e-07
5.93766e-07
6.29226e-07
4.23971e-07
6.19187e-07
2.41293e-07
6.95805e-07
-1.87685e-07
8.99596e-07
-7.19326e-07
1.15402e-06
-1.13911e-06
1.3919e-06
-1.40621e-06
1.59927e-06
-1.57007e-06
1.79026e-06
-1.68921e-06
1.97377e-06
-1.80562e-06
2.13192e-06
-1.92938e-06
2.23496e-06
-2.03934e-06
2.28046e-06
-2.12048e-06
2.29638e-06
-2.18031e-06
2.30712e-06
-2.23046e-06
-2.27547e-06
2.32473e-06
-4.6995e-09
-1.07354e-06
-6.02363e-08
-9.2314e-07
-1.19271e-07
-6.31144e-07
-1.69731e-07
-3.36934e-07
-1.55927e-07
-1.47929e-07
-1.42314e-07
4.66611e-08
-1.37712e-07
2.55403e-07
-6.82046e-08
4.36317e-07
4.76735e-08
5.26164e-07
1.69028e-07
4.81149e-07
2.43363e-07
3.61077e-07
2.76113e-07
2.17843e-07
5.3442e-07
-4.39943e-07
8.79894e-07
-1.06187e-06
1.18811e-06
-1.44561e-06
1.43819e-06
-1.65514e-06
1.64711e-06
-1.77817e-06
1.8286e-06
-1.87011e-06
1.97892e-06
-1.95551e-06
2.08297e-06
-2.03309e-06
2.14116e-06
-2.09731e-06
2.17451e-06
-2.15357e-06
2.2025e-06
-2.20836e-06
2.23485e-06
-2.26247e-06
-2.31394e-06
2.27324e-06
-1.38757e-07
-9.34299e-07
-2.86938e-07
-7.73887e-07
-4.05289e-07
-5.13332e-07
-4.87358e-07
-2.48703e-07
-5.82505e-07
-5.46254e-08
-6.53806e-07
1.20913e-07
-6.55316e-07
2.60069e-07
-5.70459e-07
3.55527e-07
-4.34409e-07
3.95258e-07
-2.90511e-07
3.44099e-07
-1.11083e-07
1.88821e-07
2.2205e-07
-1.02569e-07
6.26751e-07
-8.42043e-07
9.75747e-07
-1.40913e-06
1.25106e-06
-1.71966e-06
1.47097e-06
-1.87411e-06
1.65032e-06
-1.95678e-06
1.79387e-06
-2.01308e-06
1.89963e-06
-2.0608e-06
1.97225e-06
-2.10535e-06
2.02676e-06
-2.15152e-06
2.07601e-06
-2.20268e-06
2.12574e-06
-2.2577e-06
2.1761e-06
-2.31299e-06
-2.36457e-06
2.22699e-06
-2.88848e-07
-6.46606e-07
-5.42419e-07
-5.20961e-07
-7.52523e-07
-3.01645e-07
-9.23069e-07
-8.25702e-08
-1.06122e-06
8.29002e-08
-1.13729e-06
1.94858e-07
-1.12729e-06
2.48539e-07
-1.00987e-06
2.37478e-07
-7.65655e-07
1.5072e-07
-3.96158e-07
-2.46047e-08
-5.61021e-09
-1.9581e-07
4.13908e-07
-5.23088e-07
7.66908e-07
-1.19365e-06
1.05502e-06
-1.69628e-06
1.28509e-06
-1.94891e-06
1.46715e-06
-2.05547e-06
1.61e-06
-2.09901e-06
1.72023e-06
-2.12278e-06
1.80613e-06
-2.14625e-06
1.8785e-06
-2.17737e-06
1.94528e-06
-2.21803e-06
2.00917e-06
-2.26625e-06
2.06951e-06
-2.31812e-06
2.1265e-06
-2.36948e-06
-2.41885e-06
2.1807e-06
-3.91996e-07
-2.54885e-07
-7.35794e-07
-1.77348e-07
-1.0202e-06
-1.95528e-08
-1.23122e-06
1.2693e-07
-1.35678e-06
2.04256e-07
-1.37486e-06
2.08083e-07
-1.23486e-06
1.03795e-07
-9.04269e-07
-9.83097e-08
-4.16394e-07
-3.42168e-07
3.31348e-08
-4.78083e-07
3.14041e-07
-4.82705e-07
6.24954e-07
-8.33375e-07
9.10144e-07
-1.4792e-06
1.14372e-06
-1.92976e-06
1.32568e-06
-2.13059e-06
1.46594e-06
-2.19537e-06
1.57639e-06
-2.20906e-06
1.6677e-06
-2.2137e-06
1.74837e-06
-2.22655e-06
1.82332e-06
-2.25198e-06
1.89384e-06
-2.28826e-06
1.95927e-06
-2.33157e-06
2.01977e-06
-2.37812e-06
2.07593e-06
-2.42588e-06
-2.47297e-06
2.1304e-06
-3.67417e-07
1.10352e-07
-6.93393e-07
1.4763e-07
-9.43029e-07
2.28591e-07
-1.09349e-06
2.74232e-07
-1.11095e-06
2.15578e-07
-9.30147e-07
2.08425e-08
-5.87131e-07
-2.4881e-07
-1.75103e-07
-5.18901e-07
1.97547e-07
-7.22663e-07
4.14671e-07
-7.01255e-07
6.08653e-07
-6.78501e-07
8.53077e-07
-1.08023e-06
1.07238e-06
-1.69942e-06
1.24758e-06
-2.10535e-06
1.3786e-06
-2.26166e-06
1.48e-06
-2.29665e-06
1.56505e-06
-2.29389e-06
1.64214e-06
-2.2905e-06
1.71508e-06
-2.29917e-06
1.78451e-06
-2.32113e-06
1.84984e-06
-2.35336e-06
1.91086e-06
-2.39227e-06
1.96782e-06
-2.43527e-06
2.02271e-06
-2.48016e-06
-2.52682e-06
2.07644e-06
-2.36477e-07
3.46142e-07
-4.56812e-07
3.66717e-07
-6.03919e-07
3.73474e-07
-6.45049e-07
3.08933e-07
-5.15396e-07
8.06565e-08
-2.66682e-07
-2.42105e-07
1.02956e-08
-5.37233e-07
2.67875e-07
-7.83208e-07
4.68904e-07
-9.27888e-07
6.46557e-07
-8.82375e-07
8.45172e-07
-8.80444e-07
1.04947e-06
-1.28616e-06
1.22197e-06
-1.87279e-06
1.347e-06
-2.23086e-06
1.43304e-06
-2.34792e-06
1.50136e-06
-2.365e-06
1.5639e-06
-2.35635e-06
1.62544e-06
-2.35186e-06
1.68677e-06
-2.36028e-06
1.74704e-06
-2.38117e-06
1.80531e-06
-2.41143e-06
1.86116e-06
-2.44809e-06
1.91533e-06
-2.48891e-06
1.96801e-06
-2.53319e-06
-2.57937e-06
2.02093e-06
-8.94133e-08
4.34431e-07
-1.76854e-07
4.52437e-07
-2.06962e-07
4.00173e-07
-1.64124e-07
2.64481e-07
-3.1075e-08
-7.01112e-08
1.52138e-07
-4.36052e-07
3.39366e-07
-7.29959e-07
5.06707e-07
-9.53979e-07
6.51478e-07
-1.07538e-06
8.10229e-07
-1.04336e-06
1.00014e-06
-1.07213e-06
1.19356e-06
-1.48039e-06
1.34159e-06
-2.0217e-06
1.42756e-06
-2.31732e-06
1.47681e-06
-2.39744e-06
1.51757e-06
-2.40587e-06
1.56008e-06
-2.39884e-06
1.60682e-06
-2.39849e-06
1.65695e-06
-2.41024e-06
1.70871e-06
-2.43275e-06
1.76065e-06
-2.46321e-06
1.81216e-06
-2.49934e-06
1.86281e-06
-2.53987e-06
1.91361e-06
-2.58336e-06
-2.6302e-06
1.96426e-06
4.19595e-08
3.9425e-07
5.47727e-08
4.41314e-07
1.00583e-07
3.54865e-07
1.88457e-07
1.67437e-07
3.10763e-07
-1.92797e-07
4.23155e-07
-5.52833e-07
5.40624e-07
-8.49861e-07
6.60162e-07
-1.07495e-06
7.72533e-07
-1.1886e-06
9.03992e-07
-1.17569e-06
1.09185e-06
-1.26017e-06
1.29176e-06
-1.68127e-06
1.4239e-06
-2.15407e-06
1.47702e-06
-2.37064e-06
1.4992e-06
-2.41975e-06
1.51981e-06
-2.42657e-06
1.54742e-06
-2.42646e-06
1.58298e-06
-2.43399e-06
1.62451e-06
-2.45166e-06
1.66956e-06
-2.47766e-06
1.71627e-06
-2.50979e-06
1.76345e-06
-2.54658e-06
1.81111e-06
-2.58701e-06
1.85847e-06
-2.63119e-06
-2.67798e-06
1.90658e-06
1.18943e-07
2.80663e-07
2.24544e-07
3.37786e-07
3.13386e-07
2.66488e-07
3.97036e-07
8.87165e-08
4.35555e-07
-2.35162e-07
5.03429e-07
-6.19997e-07
5.93971e-07
-9.39985e-07
6.92003e-07
-1.17237e-06
7.90199e-07
-1.28613e-06
9.27796e-07
-1.31241e-06
1.14549e-06
-1.47802e-06
1.35578e-06
-1.89083e-06
1.46335e-06
-2.26162e-06
1.4896e-06
-2.39688e-06
1.49594e-06
-2.42612e-06
1.50514e-06
-2.43579e-06
1.52425e-06
-2.44555e-06
1.55314e-06
-2.46282e-06
1.58908e-06
-2.4875e-06
1.6292e-06
-2.51768e-06
1.67148e-06
-2.55199e-06
1.7149e-06
-2.58979e-06
1.75853e-06
-2.63105e-06
1.803e-06
-2.67508e-06
-2.72275e-06
1.84752e-06
1.0783e-07
1.81874e-07
2.39617e-07
2.13591e-07
3.38292e-07
1.73916e-07
3.61326e-07
6.58305e-08
3.35445e-07
-2.01885e-07
3.73063e-07
-6.54394e-07
4.77736e-07
-1.04187e-06
6.05075e-07
-1.29732e-06
7.44039e-07
-1.42285e-06
9.42485e-07
-1.50928e-06
1.20106e-06
-1.73482e-06
1.39465e-06
-2.08404e-06
1.46476e-06
-2.33115e-06
1.47194e-06
-2.40374e-06
1.47024e-06
-2.42424e-06
1.47504e-06
-2.4405e-06
1.49144e-06
-2.46187e-06
1.51773e-06
-2.48903e-06
1.55055e-06
-2.52022e-06
1.5871e-06
-2.55413e-06
1.62565e-06
-2.59047e-06
1.66518e-06
-2.62944e-06
1.70565e-06
-2.67106e-06
1.74612e-06
-2.71609e-06
-2.76376e-06
1.78741e-06
5.26181e-08
1.47311e-07
9.11084e-08
1.85695e-07
7.30248e-08
1.99338e-07
-3.53125e-08
1.92053e-07
-4.52106e-08
-1.82227e-07
1.35292e-07
-8.28634e-07
3.50993e-07
-1.25291e-06
5.50442e-07
-1.49286e-06
7.56294e-07
-1.62541e-06
1.00896e-06
-1.75923e-06
1.2575e-06
-1.98203e-06
1.39939e-06
-2.22446e-06
1.4305e-06
-2.36142e-06
1.42611e-06
-2.39881e-06
1.42375e-06
-2.42157e-06
1.43187e-06
-2.44842e-06
1.45089e-06
-2.48077e-06
1.47764e-06
-2.51568e-06
1.50895e-06
-2.55143e-06
1.54283e-06