/*--------------------------------*- C++ -*----------------------------------*\
  =========                 |
  \\      /  F ield         | OpenFOAM: The Open Source CFD Toolbox
   \\    /   O peration     | Website:  https://openfoam.org
    \\  /    A nd           | Version:  13
     \\/     M anipulation  |
\*---------------------------------------------------------------------------*/
FoamFile
{
    format      ascii;
    class       volVectorField;
    location    "21";
    object      U;
}
// * * * * * * * * * * * * * * * * * * * * * * * * * * * * * * * * * * * * * //

dimensions      [0 1 -1 0 0 0 0];

internalField   nonuniform List<vector> 
6440
(
(2.87336e-07 -6.7785e-07 0)
(6.9071e-07 -1.741e-06 0)
(1.53761e-06 -2.0276e-06 2.09876e-20)
(1.97906e-06 -2.16395e-06 -2.09154e-20)
(2.02599e-06 -2.34903e-06 0)
(1.59894e-06 -2.51815e-06 4.1352e-20)
(6.01223e-07 -2.5936e-06 -4.10728e-20)
(-9.74782e-07 -2.5046e-06 0)
(-3.12992e-06 -2.21393e-06 -8.02417e-20)
(-5.87367e-06 -1.67656e-06 7.94481e-20)
(-9.12237e-06 -8.37379e-07 7.78055e-20)
(-1.27182e-05 3.25304e-07 -5.37633e-22)
(-1.64341e-05 1.78197e-06 -6.29942e-22)
(-2.00304e-05 3.46059e-06 -7.37315e-20)
(-2.33087e-05 5.29918e-06 -7.11973e-20)
(-2.60505e-05 7.24201e-06 7.01144e-20)
(-2.80066e-05 9.17909e-06 0)
(-2.90137e-05 1.09679e-05 -1.30872e-19)
(-2.90411e-05 1.24966e-05 1.56549e-21)
(-2.81646e-05 1.36528e-05 1.24753e-19)
(-2.63841e-05 1.41386e-05 -1.19604e-19)
(-2.33437e-05 1.32675e-05 2.33368e-19)
(-2.19489e-05 1.19563e-05 -1.13773e-19)
(-1.64188e-05 5.32669e-06 1.09413e-19)
(-4.43065e-06 -3.73727e-06 -3.07976e-22)
(6.62782e-07 -2.16104e-06 0)
(1.71435e-06 -4.6024e-06 0)
(3.22047e-06 -4.77564e-06 2.26697e-20)
(4.36425e-06 -4.69536e-06 -2.25914e-20)
(5.45709e-06 -4.76435e-06 0)
(6.40864e-06 -4.82206e-06 4.47941e-20)
(7.16441e-06 -4.77737e-06 -4.44894e-20)
(7.62497e-06 -4.55257e-06 0)
(7.68747e-06 -4.1095e-06 0)
(7.34775e-06 -3.42296e-06 0)
(6.60545e-06 -2.48001e-06 0)
(5.41668e-06 -1.27937e-06 8.37338e-20)
(3.81262e-06 1.63627e-07 -8.26639e-20)
(1.89475e-06 1.79757e-06 0)
(-1.69831e-07 3.51881e-06 -7.84984e-20)
(-2.21058e-06 5.25223e-06 7.72983e-20)
(-4.10412e-06 6.92143e-06 0)
(-5.72338e-06 8.44098e-06 0)
(-6.93151e-06 9.72538e-06 -1.39269e-19)
(-7.70954e-06 1.07886e-05 1.36752e-19)
(-8.01645e-06 1.15651e-05 -1.29738e-19)
(-6.92192e-06 1.11907e-05 1.27245e-19)
(-8.60262e-06 1.20098e-05 1.2054e-19)
(-1.05231e-05 9.7281e-06 -1.74413e-21)
(8.35663e-07 -5.92175e-06 -8.29618e-20)
(1.07153e-06 -5.07888e-06 0)
(2.86333e-06 -8.58401e-06 0)
(4.98097e-06 -8.23497e-06 2.30812e-20)
(6.5621e-06 -7.98933e-06 -2.30052e-20)
(8.20987e-06 -8.15079e-06 0)
(9.74334e-06 -8.31293e-06 4.5779e-20)
(1.11215e-05 -8.32093e-06 -9.10414e-20)
(1.22293e-05 -8.08004e-06 4.52173e-20)
(1.29311e-05 -7.50372e-06 -8.98768e-20)
(1.30921e-05 -6.50848e-06 8.90241e-20)
(1.25637e-05 -5.03824e-06 8.80259e-20)
(1.12939e-05 -3.06379e-06 -2.00206e-22)
(9.33702e-06 -6.19038e-07 -8.57659e-20)
(6.72169e-06 2.23979e-06 -8.3818e-20)
(3.56887e-06 5.4445e-06 6.5916e-22)
(6.59732e-08 8.90099e-06 8.07946e-20)
(-3.58675e-06 1.24682e-05 0)
(-7.13919e-06 1.60052e-05 -1.50713e-19)
(-1.02928e-05 1.93769e-05 1.48191e-19)
(-1.27776e-05 2.25044e-05 0)
(-1.42871e-05 2.53665e-05 -1.35032e-19)
(-1.30735e-05 2.70614e-05 2.62202e-19)
(-1.17517e-05 3.00143e-05 -1.27204e-19)
(-1.19439e-05 3.19628e-05 1.19884e-19)
(3.51412e-06 8.00724e-06 -8.63667e-20)
(1.40944e-06 -9.23382e-06 0)
(3.79803e-06 -1.34143e-05 0)
(6.28482e-06 -1.22592e-05 2.33524e-20)
(8.1339e-06 -1.19392e-05 -2.32793e-20)
(1.0068e-05 -1.24077e-05 0)
(1.18308e-05 -1.2932e-05 4.64682e-20)
(1.34093e-05 -1.32965e-05 -9.24975e-20)
(1.4686e-05 -1.34004e-05 4.59848e-20)
(1.55087e-05 -1.3166e-05 0)
(1.57211e-05 -1.25062e-05 0)
(1.51686e-05 -1.13188e-05 0)
(1.36788e-05 -9.47038e-06 8.91731e-20)
(1.11164e-05 -6.86349e-06 -8.81312e-20)
(7.57713e-06 -3.53286e-06 -8.6452e-20)
(3.33507e-06 3.85702e-07 8.53042e-20)
(-1.44743e-06 4.84433e-06 0)
(-6.56764e-06 9.81254e-06 -1.61124e-19)
(-1.16277e-05 1.51046e-05 1.58641e-19)
(-1.61924e-05 2.05139e-05 0)
(-1.98328e-05 2.58519e-05 0)
(-2.20421e-05 3.09804e-05 0)
(-2.07095e-05 3.48701e-05 0)
(-1.70304e-05 3.94109e-05 0)
(-1.61621e-05 4.45302e-05 1.23568e-19)
(3.7571e-06 1.59157e-05 -8.37718e-22)
(1.60311e-06 -1.4201e-05 0)
(4.43165e-06 -1.86166e-05 0)
(7.04994e-06 -1.64648e-05 2.34836e-20)
(9.0054e-06 -1.60593e-05 -2.34136e-20)
(1.10381e-05 -1.6799e-05 0)
(1.28566e-05 -1.76004e-05 4.68675e-20)
(1.44637e-05 -1.82105e-05 -9.33704e-20)
(1.57504e-05 -1.85445e-05 4.64595e-20)
(1.65716e-05 -1.85431e-05 0)
(1.67775e-05 -1.81336e-05 0)
(1.62057e-05 -1.72158e-05 0)
(1.46988e-05 -1.56576e-05 9.08726e-20)
(1.20769e-05 -1.32786e-05 -8.98584e-20)
(8.19197e-06 -9.8775e-06 -8.845e-20)
(3.26143e-06 -5.53223e-06 8.73273e-20)
(-2.27214e-06 -5.10095e-07 0)
(-8.1494e-06 5.25185e-06 -1.65671e-19)
(-1.40739e-05 1.16466e-05 1.63226e-19)
(-1.9557e-05 1.84171e-05 0)
(-2.40329e-05 2.53122e-05 0)
(-2.69306e-05 3.20086e-05 0)
(-2.60785e-05 3.73382e-05 0)
(-2.17049e-05 4.26787e-05 0)
(-2.08566e-05 4.97979e-05 1.27078e-19)
(2.99712e-06 1.96116e-05 -9.34695e-20)
(1.67829e-06 -1.95388e-05 0)
(4.82745e-06 -2.37298e-05 0)
(7.4079e-06 -2.05286e-05 2.34823e-20)
(9.37308e-06 -2.00211e-05 -2.34157e-20)
(1.1425e-05 -2.09179e-05 0)
(1.32436e-05 -2.18656e-05 4.69968e-20)
(1.47962e-05 -2.25444e-05 -9.37025e-20)
(1.60271e-05 -2.29202e-05 4.66639e-20)
(1.68271e-05 -2.29734e-05 -9.35892e-20)
(1.7059e-05 -2.26584e-05 9.28178e-20)
(1.65771e-05 -2.18949e-05 0)
(1.5222e-05 -2.05529e-05 9.2028e-20)
(1.28446e-05 -1.84641e-05 5.87914e-23)
(9.23382e-06 -1.53674e-05 -1.8e-19)
(4.22792e-06 -1.09878e-05 8.88418e-20)
(-1.63374e-06 -5.58518e-06 0)
(-7.85809e-06 5.97823e-07 -1.69383e-19)
(-1.42794e-05 7.60808e-06 2.24461e-21)
(-2.03123e-05 1.51558e-05 2.71709e-21)
(-2.55042e-05 2.29123e-05 1.57153e-19)
(-2.94186e-05 3.07418e-05 0)
(-2.96322e-05 3.72112e-05 0)
(-2.55098e-05 4.29609e-05 0)
(-2.51242e-05 5.13102e-05 1.30279e-19)
(2.02022e-06 2.08672e-05 -9.68083e-20)
(1.68451e-06 -2.49688e-05 0)
(5.07982e-06 -2.85155e-05 0)
(7.55198e-06 -2.43157e-05 2.33588e-20)
(9.49217e-06 -2.37074e-05 -2.32958e-20)
(1.1476e-05 -2.46473e-05 -4.6828e-20)
(1.32533e-05 -2.56297e-05 9.34953e-20)
(1.47681e-05 -2.62953e-05 -9.35365e-20)
(1.59237e-05 -2.65875e-05 4.6619e-20)
(1.66862e-05 -2.65752e-05 0)
(1.69679e-05 -2.62648e-05 -9.35607e-20)
(1.66465e-05 -2.56041e-05 9.27513e-20)
(1.55821e-05 -2.44851e-05 9.26971e-20)
(1.36145e-05 -2.2732e-05 -9.17547e-20)
(1.05784e-05 -2.01135e-05 -9.09625e-20)
(6.20874e-06 -1.62478e-05 8.99079e-20)
(5.2744e-07 -1.08974e-05 0)
(-5.88561e-06 -4.51013e-06 -1.72386e-19)
(-1.25877e-05 2.78191e-06 1.70054e-19)
(-1.93615e-05 1.0951e-05 0)
(-2.54188e-05 1.94296e-05 -1.57415e-19)
(-3.01603e-05 2.78686e-05 1.55019e-19)
(-3.16662e-05 3.52918e-05 0)
(-2.84116e-05 4.14837e-05 0)
(-2.87623e-05 5.07109e-05 1.33084e-19)
(1.1664e-06 2.05122e-05 -1.16936e-21)
(1.65487e-06 -3.03389e-05 0)
(5.24668e-06 -3.29136e-05 0)
(7.59683e-06 -2.7836e-05 2.3125e-20)
(9.51993e-06 -2.71558e-05 -2.30656e-20)
(1.14131e-05 -2.80712e-05 0)
(1.30789e-05 -2.89653e-05 4.65306e-20)
(1.45548e-05 -2.95408e-05 -4.62932e-20)
(1.56816e-05 -2.9725e-05 0)
(1.63872e-05 -2.95786e-05 0)
(1.6698e-05 -2.92082e-05 0)
(1.65495e-05 -2.86158e-05 0)
(1.58276e-05 -2.773e-05 9.29184e-20)
(1.43838e-05 -2.6393e-05 -9.20172e-20)
(1.20448e-05 -2.4361e-05 0)
(8.57036e-06 -2.12859e-05 0)
(3.60607e-06 -1.66343e-05 0)
(-2.65665e-06 -1.03654e-05 0)
(-9.55738e-06 -2.99466e-06 0)
(-1.67543e-05 5.5027e-06 -1.65773e-19)
(-2.38335e-05 1.48881e-05 1.63443e-19)
(-2.98303e-05 2.42052e-05 0)
(-3.26193e-05 3.23626e-05 0)
(-3.03505e-05 3.90297e-05 0)
(-3.16962e-05 4.90854e-05 1.35477e-19)
(5.53729e-07 1.93834e-05 -1.02699e-19)
(1.60676e-06 -3.55546e-05 0)
(5.35493e-06 -3.69408e-05 0)
(7.60325e-06 -3.11452e-05 2.27928e-20)
(9.53266e-06 -3.04308e-05 -2.27371e-20)
(1.13681e-05 -3.13006e-05 0)
(1.29325e-05 -3.2062e-05 4.59788e-20)
(1.43027e-05 -3.24641e-05 -9.18793e-20)
(1.5389e-05 -3.25074e-05 4.58641e-20)
(1.6075e-05 -3.21968e-05 0)
(1.63855e-05 -3.17067e-05 0)
(1.63632e-05 -3.11246e-05 -9.28695e-20)
(1.5947e-05 -3.04372e-05 1.84796e-19)
(1.50209e-05 -2.95352e-05 -9.18643e-20)
(1.34092e-05 -2.81843e-05 -9.17998e-20)
(1.08935e-05 -2.60378e-05 9.08282e-20)
(7.06725e-06 -2.25483e-05 0)
(1.46367e-06 -1.70215e-05 1.76471e-19)
(-5.34924e-06 -9.73174e-06 -1.74282e-19)
(-1.27593e-05 -1.11561e-06 0)
(-2.0769e-05 8.91127e-06 0)
(-2.82931e-05 1.95721e-05 0)
(-3.25504e-05 2.87425e-05 -1.50354e-19)
(-3.1363e-05 3.58875e-05 1.48112e-19)
(-3.40112e-05 4.70527e-05 1.37498e-19)
(2.20314e-07 1.81177e-05 -1.05242e-19)
(1.54673e-06 -4.05417e-05 0)
(5.41024e-06 -4.06362e-05 0)
(7.59152e-06 -3.43025e-05 0)
(9.55774e-06 -3.3601e-05 0)
(1.13729e-05 -3.44341e-05 0)
(1.28848e-05 -3.50879e-05 0)
(1.41788e-05 -3.53201e-05 0)
(1.52429e-05 -3.51717e-05 0)
(1.59194e-05 -3.46812e-05 9.16172e-20)
(1.62009e-05 -3.40202e-05 -9.09943e-20)
(1.6239e-05 -3.33533e-05 0)
(1.60341e-05 -3.27528e-05 0)
(1.5522e-05 -3.21892e-05 0)
(1.45714e-05 -3.14867e-05 0)
(1.29469e-05 -3.02887e-05 0)
(1.03111e-05 -2.80798e-05 0)
(6.06272e-06 -2.40192e-05 0)
(-1.33606e-07 -1.73909e-05 1.742e-19)
(-7.74719e-06 -8.74586e-06 -1.72039e-19)
(-1.62173e-05 1.6674e-06 0)
(-2.50831e-05 1.35875e-05 1.59022e-19)
(-3.13907e-05 2.45417e-05 -1.56821e-19)
(-3.14715e-05 3.24349e-05 0)
(-3.53685e-05 4.50195e-05 0)
(3.30076e-07 1.72012e-05 0)
(1.47433e-06 -4.52301e-05 0)
(5.406e-06 -4.40353e-05 0)
(7.55798e-06 -3.73543e-05 0)
(9.5971e-06 -3.67257e-05 0)
(1.14464e-05 -3.75701e-05 0)
(1.2991e-05 -3.81906e-05 0)
(1.43151e-05 -3.83408e-05 -4.45843e-20)
(1.54046e-05 -3.80502e-05 4.43563e-20)
(1.60964e-05 -3.73967e-05 9.01446e-20)
(1.63925e-05 -3.65297e-05 -8.95606e-20)
(1.64747e-05 -3.56648e-05 -9.09325e-20)
(1.63897e-05 -3.4964e-05 9.0224e-20)
(1.61429e-05 -3.45076e-05 0)
(1.56862e-05 -3.42338e-05 -9.11225e-20)
(1.485e-05 -3.38638e-05 -5.05092e-22)
(1.33159e-05 -3.28692e-05 8.98158e-20)
(1.05515e-05 -3.04527e-05 0)
(5.68559e-06 -2.54071e-05 1.75189e-19)
(-1.39346e-06 -1.72636e-05 -1.73105e-19)
(-1.00855e-05 -6.64242e-06 0)
(-1.99962e-05 6.33364e-06 0)
(-2.83917e-05 1.94837e-05 -1.5432e-19)
(-3.00235e-05 2.89031e-05 1.52208e-19)
(-3.54925e-05 4.32867e-05 0)
(8.89923e-07 1.7044e-05 0)
(1.38406e-06 -4.95468e-05 0)
(5.32761e-06 -4.71605e-05 0)
(7.48282e-06 -4.03295e-05 0)
(9.62964e-06 -3.98511e-05 0)
(1.15764e-05 -4.0798e-05 0)
(1.32495e-05 -4.15168e-05 0)
(1.47298e-05 -4.17489e-05 0)
(1.5987e-05 -4.14859e-05 0)
(1.68444e-05 -4.07732e-05 0)
(1.72913e-05 -3.97271e-05 0)
(1.74946e-05 -3.85891e-05 8.94213e-20)
(1.75144e-05 -3.75807e-05 -8.87568e-20)
(1.74079e-05 -3.68945e-05 0)
(1.72222e-05 -3.6629e-05 0)
(1.69148e-05 -3.66822e-05 0)
(1.62719e-05 -3.66487e-05 0)
(1.4852e-05 -3.57605e-05 0)
(1.17982e-05 -3.27766e-05 0)
(5.99716e-06 -2.61137e-05 0)
(-2.28255e-06 -1.58044e-05 0)
(-1.24813e-05 -2.27301e-06 0)
(-2.27201e-05 1.29172e-05 1.56028e-19)
(-2.65901e-05 2.49174e-05 -1.53984e-19)
(-3.43507e-05 4.19825e-05 0)
(2.05607e-06 1.80395e-05 0)
(1.26785e-06 -5.34153e-05 0)
(5.1579e-06 -5.00195e-05 0)
(7.33968e-06 -4.32403e-05 0)
(9.62432e-06 -4.30074e-05 0)
(1.17348e-05 -4.41862e-05 -4.18686e-20)
(1.36424e-05 -4.51857e-05 4.1728e-20)
(1.54258e-05 -4.57224e-05 0)
(1.70436e-05 -4.57354e-05 0)
(1.8315e-05 -4.52077e-05 8.62219e-20)
(1.91783e-05 -4.41484e-05 -1.72623e-19)
(1.97332e-05 -4.27882e-05 -1.22003e-21)
(2.0011e-05 -4.13629e-05 8.69429e-20)
(2.00581e-05 -4.01123e-05 0)
(1.99749e-05 -3.9291e-05 0)
(1.98574e-05 -3.90492e-05 -8.91169e-20)
(1.97057e-05 -3.92845e-05 8.82799e-20)
(1.9281e-05 -3.94332e-05 1.77107e-19)
(1.78939e-05 -3.83261e-05 1.71813e-22)
(1.41985e-05 -3.40635e-05 -1.73513e-19)
(7.32659e-06 -2.50428e-05 -1.68997e-19)
(-2.67232e-06 -1.15046e-05 1.66999e-19)
(-1.40136e-05 5.27835e-06 -1.57641e-19)
(-2.01354e-05 2.01808e-05 1.55664e-19)
(-3.08407e-05 4.15548e-05 0)
(4.29466e-06 2.10149e-05 0)
(1.11785e-06 -5.67582e-05 0)
(4.88296e-06 -5.26098e-05 0)
(7.105e-06 -4.60871e-05 0)
(9.55098e-06 -4.62108e-05 0)
(1.1888e-05 -4.77785e-05 0)
(1.41337e-05 -4.92746e-05 0)
(1.6366e-05 -5.03781e-05 0)
(1.85431e-05 -5.09559e-05 0)
(2.05381e-05 -5.09408e-05 8.38182e-20)
(2.22048e-05 -5.02396e-05 -8.33483e-20)
(2.34926e-05 -4.89579e-05 0)
(2.43991e-05 -4.72468e-05 0)
(2.48855e-05 -4.53022e-05 0)
(2.49749e-05 -4.34261e-05 0)
(2.4817e-05 -4.20091e-05 0)
(2.46551e-05 -4.13879e-05 0)
(2.46382e-05 -4.14394e-05 0)
(2.44489e-05 -4.13527e-05 1.74606e-19)
(2.29611e-05 -3.93515e-05 -1.72777e-19)
(1.84484e-05 -3.28758e-05 0)
(1.0025e-05 -2.05029e-05 0)
(-1.49459e-06 -2.82011e-06 0)
(-9.28779e-06 1.49572e-05 0)
(-2.34973e-05 4.23254e-05 0)
(7.85155e-06 2.70002e-05 0)
(9.29008e-07 -5.95047e-05 0)
(4.49751e-06 -5.49274e-05 0)
(6.76625e-06 -4.88672e-05 0)
(9.39099e-06 -4.94724e-05 0)
(1.20123e-05 -5.16055e-05 0)
(1.46945e-05 -5.38352e-05 0)
(1.75279e-05 -5.58007e-05 0)
(2.04702e-05 -5.72912e-05 0)
(2.34169e-05 -5.81779e-05 0)
(2.62079e-05 -5.83465e-05 0)
(2.87329e-05 -5.76788e-05 -8.28299e-20)
(3.08825e-05 -5.61397e-05 8.22952e-20)
(3.24258e-05 -5.37952e-05 0)
(3.31637e-05 -5.08335e-05 0)
(3.30897e-05 -4.771e-05 -8.59278e-20)
(3.26538e-05 -4.50799e-05 8.51897e-20)
(3.24447e-05 -4.31768e-05 1.73251e-19)
(3.26493e-05 -4.20009e-05 -1.71592e-19)
(3.26831e-05 -4.0638e-05 0)
(3.09984e-05 -3.675e-05 0)
(2.55353e-05 -2.71513e-05 0)
(1.55012e-05 -1.04479e-05 -1.60914e-19)
(7.43947e-06 9.29044e-06 3.13328e-19)
(-1.108e-05 4.44344e-05 -1.52433e-19)
(1.3179e-05 3.75143e-05 0)
(7.00444e-07 -6.15987e-05 0)
(4.00725e-06 -5.69721e-05 0)
(6.32322e-06 -5.15793e-05 0)
(9.13486e-06 -5.28013e-05 0)
(1.20855e-05 -5.56868e-05 0)
(1.52768e-05 -5.88812e-05 0)
(1.88089e-05 -6.19973e-05 3.84195e-20)
(2.2651e-05 -6.47594e-05 -3.8265e-20)
(2.67031e-05 -6.69633e-05 7.82673e-20)
(3.09054e-05 -6.84781e-05 -7.78677e-20)
(3.51759e-05 -6.90666e-05 7.99681e-20)
(3.92129e-05 -6.85128e-05 -7.9475e-20)
(4.25567e-05 -6.65854e-05 0)
(4.47058e-05 -6.32861e-05 8.27638e-20)
(4.54194e-05 -5.87236e-05 -8.21244e-20)
(4.54081e-05 -5.33059e-05 0)
(4.53176e-05 -4.77469e-05 0)
(4.5276e-05 -4.27597e-05 1.70643e-19)
(4.54881e-05 -3.87809e-05 1.58619e-21)
(4.54963e-05 -3.49467e-05 -1.68867e-19)
(4.34331e-05 -2.83615e-05 0)
(3.69276e-05 -1.51375e-05 1.62725e-19)
(3.11224e-05 3.92415e-06 -1.60911e-19)
(8.84603e-06 4.78365e-05 0)
(2.16776e-05 5.49626e-05 1.20285e-19)
(4.37752e-07 -6.29928e-05 0)
(3.43329e-06 -5.87355e-05 0)
(5.79009e-06 -5.42129e-05 0)
(8.78444e-06 -5.61822e-05 0)
(1.21046e-05 -5.99869e-05 0)
(1.58585e-05 -6.4321e-05 0)
(2.01395e-05 -6.88186e-05 0)
(2.49584e-05 -7.31494e-05 0)
(3.02424e-05 -7.70549e-05 0)
(3.60006e-05 -8.0261e-05 0)
(4.21867e-05 -8.26434e-05 0)
(4.85166e-05 -8.3886e-05 0)
(5.42935e-05 -8.35469e-05 0)
(5.88372e-05 -8.09949e-05 0)
(6.21326e-05 -7.60266e-05 0)
(6.43308e-05 -6.86884e-05 0)
(6.53187e-05 -5.93251e-05 0)
(6.52457e-05 -4.88915e-05 0)
(6.48052e-05 -3.87042e-05 0)
(6.46969e-05 -2.99339e-05 0)
(6.45382e-05 -2.22522e-05 0)
(6.25068e-05 -1.26488e-05 0)
(6.26136e-05 1.80235e-06 0)
(3.97344e-05 5.47529e-05 0)
(3.56702e-05 8.5371e-05 0)
(1.61107e-07 -6.35968e-05 -7.54553e-21)
(2.80918e-06 -6.01294e-05 -8.69228e-21)
(5.20402e-06 -5.66589e-05 1.73329e-20)
(8.38656e-06 -5.94117e-05 -3.48994e-20)
(1.21328e-05 -6.41649e-05 3.48262e-20)
(1.64817e-05 -6.97215e-05 0)
(2.14821e-05 -7.56849e-05 -3.54541e-20)
(2.72363e-05 -8.1702e-05 -3.60876e-20)
(3.38195e-05 -8.75132e-05 1.431e-19)
(4.11906e-05 -9.25565e-05 -7.16484e-20)
(4.92849e-05 -9.66979e-05 -7.33658e-20)
(5.78924e-05 -9.97485e-05 7.29519e-20)
(6.66294e-05 -0.000101371 7.51187e-20)
(7.48812e-05 -0.000100808 -1.50768e-19)
(8.19756e-05 -9.71881e-05 -1.65226e-21)
(8.7921e-05 -9.00714e-05 -8.02294e-20)
(9.22844e-05 -7.91039e-05 1.55662e-19)
(9.45211e-05 -6.47336e-05 1.61899e-19)
(9.49924e-05 -4.76803e-05 -3.24674e-19)
(9.45226e-05 -2.97016e-05 1.62684e-19)
(9.39429e-05 -1.29074e-05 0)
(9.40226e-05 1.1987e-06 -1.66536e-19)
(0.000103612 1.20605e-05 3.28963e-19)
(8.81954e-05 7.65458e-05 -1.62383e-19)
(6.08713e-05 0.000142987 -1.31348e-19)
(-9.33781e-08 -6.35265e-05 0)
(2.20191e-06 -6.12613e-05 0)
(4.72477e-06 -5.89419e-05 0)
(8.21114e-06 -6.25392e-05 0)
(1.2392e-05 -6.83139e-05 0)
(1.73015e-05 -7.51973e-05 0)
(2.29815e-05 -8.25665e-05 0)
(2.95897e-05 -9.0046e-05 0)
(3.75202e-05 -9.7281e-05 0)
(4.67931e-05 -0.000103795 0)
(5.69929e-05 -0.000109315 0)
(6.79593e-05 -0.000113738 0)
(7.9405e-05 -0.000116733 0)
(9.10201e-05 -0.00011794 0)
(0.000102688 -0.000116733 0)
(0.000114084 -0.000112512 0)
(0.000123855 -0.000104312 0)
(0.000131435 -9.10747e-05 0)
(0.000137022 -7.2139e-05 1.58195e-19)
(0.000140514 -4.87392e-05 -1.56773e-19)
(0.000141958 -2.08607e-05 0)
(0.000143025 9.22498e-06 0)
(0.000164961 3.10943e-05 0)
(0.000159905 0.000126792 0)
(9.15771e-05 0.000277886 0)
(-2.25383e-07 -6.31912e-05 0)
(1.76617e-06 -6.25603e-05 0)
(4.46786e-06 -6.15194e-05 0)
(8.23153e-06 -6.6089e-05 0)
(1.28168e-05 -7.28717e-05 0)
(1.83921e-05 -8.08476e-05 0)
(2.49885e-05 -8.92648e-05 0)
(3.28268e-05 -9.76519e-05 0)
(4.23754e-05 -0.00010536 0)
(5.34945e-05 -0.000112397 0)
(6.57578e-05 -0.000118548 6.62856e-20)
(7.90722e-05 -0.000123667 -6.59374e-20)
(9.33025e-05 -0.000127572 0)
(0.00010827 -0.000129997 0)
(0.000123628 -0.000130735 0)
(0.000139211 -0.000129971 0)
(0.00015497 -0.000127646 0)
(0.000170844 -0.00012292 0)
(0.00018527 -0.000114005 0)
(0.000199074 -0.000100354 0)
(0.000214103 -8.26664e-05 0)
(0.000230586 -6.35989e-05 1.67791e-19)
(0.000276234 -6.15845e-05 -1.66055e-19)
(0.00029156 1.0578e-05 0)
(1.48029e-05 0.000512191 0)
(-3.11261e-07 -6.30494e-05 0)
(1.52461e-06 -6.41859e-05 0)
(4.54239e-06 -6.40271e-05 0)
(8.8259e-06 -6.89424e-05 0)
(1.41779e-05 -7.58044e-05 0)
(2.07076e-05 -8.35661e-05 0)
(2.84737e-05 -9.14868e-05 0)
(3.79726e-05 -9.87141e-05 0)
(4.94331e-05 -0.000104895 0)
(6.24758e-05 -0.000110092 0)
(7.69779e-05 -0.000114053 0)
(9.29395e-05 -0.000116592 0)
(0.000110346 -0.000117542 0)
(0.000129119 -0.000116761 0)
(0.000148985 -0.000114045 0)
(0.000169944 -0.000108902 0)
(0.000192047 -0.000101339 0)
(0.000215918 -9.13145e-05 0)
(0.000242494 -7.81871e-05 0)
(0.000273016 -5.9031e-05 0)
(0.000309116 -3.27572e-05 0)
(0.000356662 3.09658e-06 0)
(0.000436755 5.41961e-05 0)
(0.000620595 0.000147196 0)
(0.00125476 0.000746924 0)
(-3.10364e-07 -6.33044e-05 0)
(1.67912e-06 -6.65894e-05 0)
(5.13128e-06 -6.75941e-05 0)
(1.0096e-05 -7.33288e-05 0)
(1.63493e-05 -8.09624e-05 0)
(2.39527e-05 -8.94171e-05 0)
(3.32043e-05 -9.78101e-05 0)
(4.42771e-05 -0.000105378 0)
(5.70416e-05 -0.000112015 0)
(7.14585e-05 -0.000117512 0)
(8.74858e-05 -0.000121638 0)
(0.000105056 -0.000124244 0)
(0.000124101 -0.000125249 0)
(0.00014464 -0.000124643 0)
(0.000166982 -0.000122417 0)
(0.000191167 -0.000118413 0)
(0.000216877 -0.000112831 0)
(0.000244304 -0.000105392 0)
(0.000274007 -9.67881e-05 0)
(0.00030707 -8.68982e-05 0)
(0.000345656 -7.52527e-05 0)
(0.000394279 -6.06652e-05 0)
(0.000461127 -4.61279e-05 0)
(0.000540504 -4.308e-05 0)
(0.000556598 -6.26953e-05 0)
(-3.23503e-07 -6.37545e-05 0)
(1.89702e-06 -6.95432e-05 0)
(5.82016e-06 -7.2102e-05 0)
(1.15096e-05 -7.91233e-05 0)
(1.87179e-05 -8.80466e-05 0)
(2.75565e-05 -9.78046e-05 0)
(3.81549e-05 -0.000107518 0)
(5.0555e-05 -0.00011668 0)
(6.47614e-05 -0.000124838 0)
(8.07606e-05 -0.000131673 0)
(9.85102e-05 -0.000136967 0)
(0.000117964 -0.000140552 0)
(0.000139088 -0.000142282 0)
(0.000161889 -0.000142043 0)
(0.000186468 -0.000139857 0)
(0.000212843 -0.00013609 0)
(0.000241264 -0.000131008 0)
(0.000271436 -0.000124723 0)
(0.000303022 -0.000117674 0)
(0.000336664 -0.00010997 0)
(0.000373059 -0.000101601 0)
(0.000412441 -9.30367e-05 0)
(0.000451676 -8.79972e-05 0)
(0.000472794 -9.66162e-05 0)
(0.00043459 -0.000116579 0)
(-3.31838e-07 -6.43346e-05 0)
(2.12503e-06 -7.29111e-05 0)
(6.52322e-06 -7.73216e-05 0)
(1.29415e-05 -8.59295e-05 0)
(2.10987e-05 -9.64316e-05 0)
(3.10541e-05 -0.000107825 0)
(4.28818e-05 -0.00011933 0)
(5.66243e-05 -0.000130279 0)
(7.22961e-05 -0.000140171 0)
(8.98814e-05 -0.000148684 0)
(0.000109352 -0.000155596 0)
(0.000130683 -0.000160738 0)
(0.000153862 -0.000163972 0)
(0.000178892 -0.000165201 0)
(0.000205794 -0.000164419 0)
(0.00023455 -0.000161785 0)
(0.000265171 -0.000157512 0)
(0.000297384 -0.000152189 0)
(0.00033076 -0.000145854 0)
(0.000364967 -0.000138591 0)
(0.000399293 -0.000130301 0)
(0.000431734 -0.000120869 0)
(0.000456906 -0.000110395 0)
(0.000462243 -9.75715e-05 0)
(0.000432418 -6.84551e-05 0)
(-3.45699e-07 -6.50083e-05 0)
(2.31206e-06 -7.66253e-05 0)
(7.13538e-06 -8.31585e-05 0)
(1.42138e-05 -9.36138e-05 0)
(2.32217e-05 -0.000105954 0)
(3.41847e-05 -0.000119252 0)
(4.71505e-05 -0.000132714 0)
(6.21464e-05 -0.000145627 0)
(7.91778e-05 -0.000157479 0)
(9.82306e-05 -0.000167936 0)
(0.000119286 -0.000176773 0)
(0.000142326 -0.000183827 0)
(0.000167343 -0.000188972 0)
(0.000194333 -0.000192125 0)
(0.000223283 -0.000193262 0)
(0.000254139 -0.000192445 0)
(0.000286763 -0.000189806 0)
(0.000320823 -0.000185622 0)
(0.000355753 -0.000179927 0)
(0.0003908 -0.000172633 0)
(0.0004246 -0.000163272 0)
(0.000454716 -0.000150594 0)
(0.000476935 -0.000132199 0)
(0.000485303 -0.000102562 0)
(0.000476796 -4.85859e-05 0)
(-3.6606e-07 -6.57536e-05 0)
(2.4453e-06 -8.06249e-05 0)
(7.63167e-06 -8.95074e-05 0)
(1.52788e-05 -0.000102009 0)
(2.50328e-05 -0.000116363 0)
(3.68887e-05 -0.000131706 0)
(5.08668e-05 -0.000147234 0)
(6.69791e-05 -0.000162223 0)
(8.522e-05 -0.000176145 0)
(0.000105576 -0.000188658 0)
(0.000128028 -0.000199536 0)
(0.000152559 -0.000208619 0)
(0.000179155 -0.000215788 0)
(0.000207799 -0.000220951 0)
(0.000238456 -0.000224059 0)
(0.000271035 -0.000225104 0)
(0.00030535 -0.00022411 0)
(0.00034104 -0.000221101 0)
(0.000377497 -0.000215953 0)
(0.0004138 -0.000208247 0)
(0.000448701 -0.000197102 0)
(0.000480266 -0.000180614 0)
(0.000506045 -0.000155312 0)
(0.000524075 -0.000115341 0)
(0.000535703 -5.16429e-05 0)
(-3.93467e-07 -6.65425e-05 0)
(2.52133e-06 -8.48508e-05 0)
(7.99676e-06 -9.62829e-05 0)
(1.61186e-05 -0.000111012 0)
(2.6504e-05 -0.000127535 0)
(3.91208e-05 -0.000145048 0)
(5.39656e-05 -0.000162751 0)
(7.10316e-05 -0.00017991 0)
(9.03066e-05 -0.000195991 0)
(0.000111769 -0.000210646 0)
(0.000135396 -0.000223649 0)
(0.000161166 -0.000234844 0)
(0.000189055 -0.000244108 0)
(0.000219032 -0.000251339 0)
(0.00025104 -0.000256451 0)
(0.000284973 -0.00025937 0)
(0.000320628 -0.000260008 0)
(0.000357662 -0.000258216 0)
(0.000395535 -0.000253673 0)
(0.000433462 -0.000245728 0)
(0.000470411 -0.00023315 0)
(0.000505263 -0.000213887 0)
(0.000537047 -0.000184435 0)
(0.000565779 -0.000139984 0)
(0.000593901 -7.47318e-05 0)
(-4.27616e-07 -6.7345e-05 0)
(2.53872e-06 -8.92412e-05 0)
(8.23162e-06 -0.000103397 0)
(1.6729e-05 -0.000120517 0)
(2.76276e-05 -0.000139344 0)
(4.08669e-05 -0.000159135 0)
(5.6421e-05 -0.000179102 0)
(7.42701e-05 -0.00019851 0)
(9.43877e-05 -0.000216818 0)
(0.000116747 -0.000233677 0)
(0.000141316 -0.000248863 0)
(0.000168064 -0.000262218 0)
(0.000196957 -0.000273615 0)
(0.000227951 -0.000282938 0)
(0.000260977 -0.000290067 0)
(0.000295921 -0.000294867 0)
(0.000332595 -0.000297159 0)
(0.000370704 -0.00029666 0)
(0.000409824 -0.0002929 0)
(0.000449398 -0.000285091 0)
(0.000488771 -0.000271935 0)
(0.000527435 -0.000251408 0)
(0.000565314 -0.00022061 0)
(0.000603385 -0.0001758 0)
(0.000644221 -0.000113387 0)
(-4.67587e-07 -6.81319e-05 0)
(2.50311e-06 -9.37354e-05 0)
(8.34112e-06 -0.000110766 0)
(1.71208e-05 -0.000130414 0)
(2.8413e-05 -0.000151659 0)
(4.21363e-05 -0.000173819 0)
(5.82459e-05 -0.000196123 0)
(7.67041e-05 -0.000217838 0)
(9.74763e-05 -0.000238423 0)
(0.000120523 -0.000257527 0)
(0.000145805 -0.000274928 0)
(0.000173282 -0.000290467 0)
(0.000202911 -0.000304011 0)
(0.000234637 -0.000315428 0)
(0.000268387 -0.000324572 0)
(0.000304053 -0.000331261 0)
(0.000341475 -0.000335245 0)
(0.000380429 -0.00033616 0)
(0.000420622 -0.000333454 0)
(0.000461722 -0.000326284 0)
(0.000503429 -0.00031341 0)
(0.00054565 -0.00029308 0)
(0.00058884 -0.000263045 0)
(0.000634275 -0.000220628 0)
(0.000684391 -0.000163491 0)
(-5.11602e-07 -6.88768e-05 0)
(2.41963e-06 -9.82755e-05 0)
(8.34048e-06 -0.000118309 0)
(1.73094e-05 -0.000140599 0)
(2.88843e-05 -0.000164354 0)
(4.29611e-05 -0.000188955 0)
(5.94768e-05 -0.000213652 0)
(7.83825e-05 -0.000237717 0)
(9.96282e-05 -0.000260611 0)
(0.000123168 -0.000281984 0)
(0.000148953 -0.000301615 0)
(0.000176935 -0.000319343 0)
(0.000207062 -0.00033503 0)
(0.000239278 -0.000348534 0)
(0.00027351 -0.000359687 0)
(0.000309665 -0.000368276 0)
(0.000347621 -0.000374012 0)
(0.000387229 -0.000376491 0)
(0.000428322 -0.000375137 0)
(0.00047076 -0.000369137 0)
(0.000514507 -0.000357381 0)
(0.000559774 -0.000338427 0)
(0.000607217 -0.000310577 0)
(0.000658192 -0.000272095 0)
(0.000714816 -0.000221523 0)
(-5.58205e-07 -6.95577e-05 0)
(2.29865e-06 -0.00010281 0)
(8.24281e-06 -0.00012595 0)
(1.73211e-05 -0.000150975 0)
(2.90746e-05 -0.000177313 0)
(4.33844e-05 -0.00020441 0)
(6.01726e-05 -0.000231539 0)
(7.93739e-05 -0.000257981 0)
(0.000100932 -0.000283202 0)
(0.00012479 -0.000306853 0)
(0.000150891 -0.000328714 0)
(0.000179183 -0.000348625 0)
(0.000209611 -0.000366446 0)
(0.000242116 -0.000382026 0)
(0.000276635 -0.000395188 0)
(0.000313097 -0.000405701 0)
(0.000351421 -0.000413264 0)
(0.000391526 -0.000417466 0)
(0.000433354 -0.000417757 0)
(0.000476913 -0.000413401 0)
(0.000522348 -0.000403456 0)
(0.000570048 -0.000386787 0)
(0.000620775 -0.000362148 0)
(0.000675781 -0.000328388 0)
(0.00073686 -0.00028476 0)
(-6.0553e-07 -7.01576e-05 0)
(2.14746e-06 -0.000107298 0)
(8.06838e-06 -0.000133622 0)
(1.71804e-05 -0.000161452 0)
(2.90229e-05 -0.000190428 0)
(4.34594e-05 -0.00022006 0)
(6.03975e-05 -0.000249647 0)
(7.97641e-05 -0.000278482 0)
(0.00010149 -0.000306035 0)
(0.000125513 -0.000331962 0)
(0.000151772 -0.000356046 0)
(0.000180211 -0.000378129 0)
(0.000210773 -0.000398071 0)
(0.000243406 -0.000415722 0)
(0.000278059 -0.000430899 0)
(0.000314682 -0.000443373 0)
(0.000353236 -0.000452846 0)
(0.000393702 -0.000458932 0)
(0.000436106 -0.00046113 0)
(0.000480561 -0.000458811 0)
(0.000527325 -0.00045121 0)
(0.000576878 -0.000437463 0)
(0.000630006 -0.00041669 0)
(0.000687851 -0.000388156 0)
(0.000751918 -0.000351493 0)
(-6.52216e-07 -7.06643e-05 0)
(1.97685e-06 -0.000111704 0)
(7.83097e-06 -0.000141269 0)
(1.69174e-05 -0.000171955 0)
(2.87683e-05 -0.000203607 0)
(4.3238e-05 -0.0002358 0)
(6.0223e-05 -0.000267858 0)
(7.96372e-05 -0.000299088 0)
(0.000101408 -0.00032897 0)
(0.000125466 -0.000357166 0)
(0.000151748 -0.000383461 0)
(0.000180196 -0.000407703 0)
(0.000210758 -0.000429756 0)
(0.000243386 -0.000449473 0)
(0.000278045 -0.00046668 0)
(0.000314708 -0.000481158 0)
(0.000353373 -0.000492629 0)
(0.000394069 -0.000500746 0)
(0.000436885 -0.000505077 0)
(0.000482004 -0.000505104 0)
(0.000529747 -0.000500231 0)
(0.000580627 -0.000489825 0)
(0.000635399 -0.000473293 0)
(0.000695084 -0.000450203 0)
(0.000760949 -0.000420441 0)
(-6.96468e-07 -7.10705e-05 0)
(1.79249e-06 -0.000116001 0)
(7.54936e-06 -0.000148842 0)
(1.65555e-05 -0.000182417 0)
(2.83495e-05 -0.00021677 0)
(4.27735e-05 -0.000251535 0)
(5.97132e-05 -0.000286067 0)
(7.90783e-05 -0.000319689 0)
(0.000100787 -0.000351891 0)
(0.00012477 -0.00038234 0)
(0.000150961 -0.000410832 0)
(0.000179303 -0.000437219 0)
(0.000209749 -0.000461374 0)
(0.000242261 -0.00048316 0)
(0.000276816 -0.000502415 0)
(0.00031341 -0.000518941 0)
(0.000352068 -0.000532491 0)
(0.00039286 -0.000542766 0)
(0.000435915 -0.000549409 0)
(0.000481459 -0.000552011 0)
(0.000529838 -0.000550127 0)
(0.000581563 -0.000543313 0)
(0.00063733 -0.000531196 0)
(0.000698034 -0.000513562 0)
(0.000764738 -0.000490467 0)
(-7.37354e-07 -7.13733e-05 0)
(1.6034e-06 -0.000120167 0)
(7.23436e-06 -0.000156301 0)
(1.61206e-05 -0.000192785 0)
(2.78003e-05 -0.00022985 0)
(4.21108e-05 -0.000267189 0)
(5.89306e-05 -0.000304188 0)
(7.81601e-05 -0.000340189 0)
(9.97182e-05 -0.000374694 0)
(0.00012353 -0.000407381 0)
(0.000149533 -0.000438052 0)
(0.000177672 -0.00046657 0)
(0.000207903 -0.000492819 0)
(0.000240199 -0.000516676 0)
(0.000274548 -0.000537997 0)
(0.000310966 -0.000556611 0)
(0.000349499 -0.000572307 0)
(0.000390241 -0.00058484 0)
(0.000433349 -0.000593927 0)
(0.000479067 -0.000599258 0)
(0.000527746 -0.000600518 0)
(0.000579866 -0.000597416 0)
(0.000636057 -0.000589745 0)
(0.000697088 -0.000577446 0)
(0.000763847 -0.000560686 0)
(-7.73626e-07 -7.15731e-05 0)
(1.41312e-06 -0.000124188 0)
(6.90123e-06 -0.000163617 0)
(1.56304e-05 -0.000203014 0)
(2.7151e-05 -0.000242788 0)
(4.12919e-05 -0.000282693 0)
(5.79248e-05 -0.000322144 0)
(7.69493e-05 -0.000360506 0)
(9.82777e-05 -0.000397294 0)
(0.000121839 -0.000432197 0)
(0.000147568 -0.000465028 0)
(0.000175416 -0.000495662 0)
(0.000205344 -0.000523996 0)
(0.000237331 -0.000549923 0)
(0.000271377 -0.000573324 0)
(0.000307508 -0.000594054 0)
(0.000345788 -0.000611945 0)
(0.000386326 -0.000626803 0)
(0.000429289 -0.000638415 0)
(0.000474925 -0.000646562 0)
(0.000523568 -0.000651033 0)
(0.000575662 -0.00065166 0)
(0.000631758 -0.000648361 0)
(0.000692515 -0.000641186 0)
(0.000758665 -0.000630372 0)
(-8.04917e-07 -7.16734e-05 0)
(1.22848e-06 -0.000128053 0)
(6.55644e-06 -0.000170764 0)
(1.51039e-05 -0.000213066 0)
(2.64255e-05 -0.000255539 0)
(4.03488e-05 -0.000297992 0)
(5.67417e-05 -0.000339874 0)
(7.54971e-05 -0.000380572 0)
(9.65309e-05 -0.000419617 0)
(0.000119769 -0.000456712 0)
(0.00014515 -0.000491681 0)
(0.000172628 -0.000524411 0)
(0.000202169 -0.000554816 0)
(0.000233757 -0.000582808 0)
(0.000267399 -0.000608291 0)
(0.000303132 -0.000631152 0)
(0.000341025 -0.000651262 0)
(0.000381193 -0.000668478 0)
(0.000423806 -0.000682651 0)
(0.000469098 -0.000693636 0)
(0.000517381 -0.000701311 0)
(0.000569049 -0.000705604 0)
(0.00062458 -0.000706522 0)
(0.000684526 -0.000704193 0)
(0.000749488 -0.000698899 0)
(-8.30405e-07 -7.168e-05 0)
(1.05067e-06 -0.000131756 0)
(6.21086e-06 -0.000177724 0)
(1.45519e-05 -0.000222913 0)
(2.56442e-05 -0.000268062 0)
(3.93102e-05 -0.000313037 0)
(5.54135e-05 -0.000357322 0)
(7.3849e-05 -0.000400326 0)