/*--------------------------------*- C++ -*----------------------------------*\
  =========                 |
  \\      /  F ield         | OpenFOAM: The Open Source CFD Toolbox
   \\    /   O peration     | Website:  https://openfoam.org
    \\  /    A nd           | Version:  13
     \\/     M anipulation  |
\*---------------------------------------------------------------------------*/
FoamFile
{
    format      ascii;
    class       volVectorField;
    location    "21";
    object      U;
}
// * * * * * * * * * * * * * * * * * * * * * * * * * * * * * * * * * * * * * //

dimensions      [0 1 -1 0 0 0 0];

internalField   nonuniform List<vector> 
6440
(
(0.0322526 -0.113914 0)
(0.0966013 -0.177485 0)
(0.170366 -0.167643 -6.18394e-16)
(0.217457 -0.142765 5.63428e-16)
(0.259706 -0.0955154 0)
(0.296746 -0.0367376 -9.46027e-16)
(0.341548 0.0110695 8.70812e-16)
(0.380838 0.0371259 0)
(0.419462 0.0423055 0)
(0.460891 0.0161461 0)
(0.513115 -0.0206744 1.17689e-15)
(0.579341 -0.0511355 -2.06429e-15)
(0.658748 -0.0717466 9.20714e-16)
(0.74052 -0.0804564 0)
(0.812535 -0.0772819 -1.5753e-15)
(0.862677 -0.0645276 1.52878e-15)
(0.880823 -0.0487202 0)
(0.86501 -0.0225984 0)
(0.820649 0.00785872 0)
(0.750485 0.045658 0)
(0.657632 0.0744832 -1.89515e-15)
(0.54372 0.0998542 4.47204e-15)
(0.408071 0.116424 -2.84775e-15)
(0.250296 0.110768 -4.06392e-15)
(0.0872313 0.0838145 6.13764e-15)
(0.0457952 -0.242757 0)
(0.0879026 -0.236304 0)
(0.132618 -0.172606 -9.30384e-16)
(0.191522 -0.0847572 1.27594e-15)
(0.254659 0.00828638 0)
(0.252063 0.0600585 -3.04395e-15)
(0.212936 0.0274217 5.05437e-15)
(0.188029 -0.0326332 -1.87321e-15)
(0.196119 -0.0953145 0)
(0.235666 -0.146253 0)
(0.301267 -0.175723 0)
(0.384858 -0.183682 -1.23861e-15)
(0.475038 -0.174383 1.06943e-15)
(0.568568 -0.150468 9.61562e-16)
(0.658857 -0.111559 -9.04339e-16)
(0.735106 -0.0588504 0)
(0.787019 0.00595025 0)
(0.802009 0.0730689 0)
(0.780235 0.137434 0)
(0.729501 0.193893 0)
(0.664502 0.242099 -1.81475e-15)
(0.580074 0.280734 1.98098e-15)
(0.477028 0.305475 0)
(0.351002 0.302003 -2.88551e-15)
(0.156176 0.243291 8.02386e-15)
(0.025378 -0.190285 0)
(0.00411008 -0.0913679 0)
(-0.0544797 0.0198359 0)
(-0.116717 0.0446207 0)
(-0.180371 -0.0157941 0)
(-0.226511 -0.0881794 0)
(-0.233284 -0.152598 7.70114e-16)
(-0.201978 -0.207511 -7.76854e-16)
(-0.142796 -0.251443 0)
(-0.0671975 -0.287266 0)
(0.0159986 -0.316669 0)
(0.0938586 -0.331106 0)
(0.171423 -0.326459 0)
(0.261002 -0.295047 1.30509e-15)
(0.359909 -0.234503 -3.64122e-15)
(0.455562 -0.151082 2.45923e-15)
(0.528421 -0.05979 0)
(0.560411 0.0350264 0)
(0.561277 0.132609 0)
(0.541325 0.229189 0)
(0.509991 0.317904 0)
(0.467219 0.391128 0)
(0.408429 0.440836 2.33377e-15)
(0.328981 0.451468 -2.68444e-15)
(0.164316 0.399279 3.34739e-15)
(-0.0123195 -0.0476011 0)
(-0.118367 0.0614711 0)
(-0.225914 0.0838631 -3.05524e-16)
(-0.322707 0.0152048 2.84204e-16)
(-0.402812 -0.0775211 0)
(-0.444193 -0.14222 -5.68015e-16)
(-0.436425 -0.185835 5.35539e-16)
(-0.405997 -0.22761 0)
(-0.370839 -0.273091 9.97557e-16)
(-0.340664 -0.327317 -9.81072e-16)
(-0.31343 -0.384214 9.83312e-16)
(-0.27847 -0.428383 -2.04391e-15)
(-0.222206 -0.443417 1.13607e-15)
(-0.131209 -0.412311 0)
(-0.00642463 -0.32141 0)
(0.13616 -0.182745 0)
(0.271356 -0.0413501 5.23282e-15)
(0.335527 0.0601296 -1.85821e-19)
(0.345953 0.158563 -3.5163e-15)
(0.337554 0.263831 0)
(0.331902 0.372049 0)
(0.326239 0.467509 2.64132e-15)
(0.309048 0.536156 -2.63328e-15)
(0.27746 0.56712 -2.79607e-15)
(0.142077 0.452654 6.60687e-15)
(-0.0533906 0.125035 0)
(-0.208787 0.233814 0)
(-0.343451 0.174468 -2.29147e-16)
(-0.462286 0.0563047 2.2889e-16)
(-0.538722 -0.04064 0)
(-0.560376 -0.0884932 -4.82098e-16)
(-0.547554 -0.1221 4.46111e-16)
(-0.541353 -0.170979 0)
(-0.551659 -0.239658 7.84293e-16)
(-0.575316 -0.32582 -7.40776e-16)
(-0.598063 -0.414342 7.07219e-16)
(-0.606333 -0.487216 -1.38261e-15)
(-0.589906 -0.527454 6.99408e-16)
(-0.53494 -0.515394 0)
(-0.424836 -0.430594 1.72453e-15)
(-0.24735 -0.260353 -2.33395e-15)
(-0.0206145 -0.0322704 4.25123e-15)
(0.140902 0.128925 3.21024e-20)
(0.159138 0.207134 -6.0808e-15)
(0.158586 0.309314 0)
(0.182188 0.423139 3.6762e-15)
(0.207722 0.523361 6.44618e-19)
(0.223105 0.594616 -2.71146e-15)
(0.226118 0.601848 -2.65234e-15)
(0.116055 0.44502 3.30622e-15)
(-0.0886066 0.370523 0)
(-0.279932 0.434145 0)
(-0.438284 0.319822 -1.85363e-16)
(-0.555015 0.17411 1.92722e-16)
(-0.606757 0.0759247 0)
(-0.615191 0.0271317 -4.38616e-16)
(-0.624239 -0.0210132 4.0378e-16)
(-0.660506 -0.0964844 0)
(-0.718486 -0.196937 6.8849e-16)
(-0.784039 -0.310701 -6.36113e-16)
(-0.842543 -0.420669 5.9095e-16)
(-0.882729 -0.512882 -1.11704e-15)
(-0.896398 -0.573775 5.41162e-16)
(-0.872865 -0.590278 0)
(-0.794736 -0.545181 -1.14913e-15)
(-0.639938 -0.411774 1.32974e-15)
(-0.399639 -0.183563 1.78805e-15)
(-0.124661 0.0902896 3.79315e-20)
(0.012312 0.240069 -4.07324e-15)
(0.0319556 0.322111 0)
(0.0712058 0.430425 -2.95773e-15)
(0.124559 0.535461 5.25936e-15)
(0.165146 0.591304 -2.47741e-15)
(0.181939 0.586865 -2.57092e-15)
(0.0924716 0.390727 3.57027e-15)
(-0.111972 0.668747 0)
(-0.321598 0.658227 0)
(-0.496146 0.498909 -1.56243e-16)
(-0.602019 0.317498 1.68267e-16)
(-0.636197 0.194142 0)
(-0.654311 0.12438 -4.2e-16)
(-0.699461 0.0537094 3.87907e-16)
(-0.776141 -0.0474203 0)
(-0.867416 -0.167284 6.49211e-16)
(-0.956068 -0.289217 -5.90369e-16)
(-1.03356 -0.403703 5.37959e-16)
(-1.09521 -0.502625 -9.93363e-16)
(-1.13679 -0.579478 4.67139e-16)
(-1.14973 -0.624517 0)
(-1.11737 -0.628142 0)
(-1.01626 -0.570114 0)
(-0.818208 -0.414111 1.10188e-15)
(-0.509008 -0.147999 -3.64625e-21)
(-0.156669 0.176975 -2.52631e-15)
(-0.0145215 0.352276 0)
(0.0235541 0.421169 0)
(0.0789963 0.509564 2.64322e-15)
(0.133218 0.566719 -2.53208e-15)
(0.151929 0.546736 -2.69509e-15)
(0.0769506 0.314309 4.07652e-15)
(-0.109384 0.919482 0)
(-0.324066 0.888409 0)
(-0.509857 0.669322 -1.37482e-16)
(-0.620954 0.416895 1.52133e-16)
(-0.671261 0.237812 0)
(-0.710419 0.153397 -4.08508e-16)
(-0.777208 0.0804082 3.87025e-16)
(-0.875116 -0.0258861 0)
(-0.980769 -0.140374 6.47786e-16)
(-1.07705 -0.2526 -5.79406e-16)
(-1.161 -0.357041 5.19328e-16)
(-1.23673 -0.450764 -9.41978e-16)
(-1.30287 -0.53624 4.33085e-16)
(-1.35264 -0.609883 0)
(-1.37135 -0.661579 0)
(-1.33866 -0.671189 0)
(-1.22542 -0.621071 8.11944e-16)
(-0.99325 -0.464825 -1.39792e-20)
(-0.612382 -0.166573 -1.28324e-15)
(-0.149798 0.229244 0)
(0.0382443 0.416942 0)
(0.079651 0.473531 2.95471e-15)
(0.124895 0.521246 -2.79354e-15)
(0.141145 0.493435 -2.99917e-15)
(0.0733963 0.250872 9.30675e-15)
(-0.0845671 1.11722 0)
(-0.280513 1.11282 0)
(-0.467658 0.825795 0)
(-0.610128 0.474589 0)
(-0.711382 0.211187 3.50147e-16)
(-0.779874 0.139063 -3.98056e-16)
(-0.849684 0.0703835 3.85589e-16)
(-0.944885 -0.00945713 -3.61256e-16)
(-1.04593 -0.0935607 6.6917e-16)
(-1.14018 -0.189024 -3.19446e-19)
(-1.22662 -0.276636 -2.54632e-19)
(-1.31276 -0.364349 -4.67861e-16)
(-1.39874 -0.45657 -4.22354e-16)
(-1.47852 -0.550927 7.73689e-16)
(-1.54044 -0.640256 -1.08219e-15)
(-1.56887 -0.713054 6.89211e-16)
(-1.5411 -0.748705 0)
(-1.42179 -0.718885 7.08978e-16)
(-1.16216 -0.567894 -8.10492e-16)
(-0.71618 -0.236453 1.12198e-15)
(-0.140685 0.239854 1.74418e-19)
(0.0987296 0.440553 9.23119e-20)
(0.137246 0.479362 -3.1818e-15)
(0.152943 0.45127 0)
(0.0822849 0.229883 -4.76879e-15)
(-0.049354 1.25079 0)
(-0.19554 1.31941 0)
(-0.364092 0.998309 0)
(-0.543743 0.560839 0)
(-0.710664 0.213515 -3.46045e-16)
(-0.817922 0.114757 3.94475e-16)
(-0.88263 0.0811077 -3.83511e-16)
(-0.963615 0.0429164 3.54815e-16)
(-1.05737 -0.0182435 0)
(-1.14923 -0.0895438 -6.08395e-16)
(-1.2421 -0.167043 2.25857e-19)
(-1.33825 -0.253732 4.8125e-16)
(-1.43934 -0.353348 0)
(-1.53968 -0.464825 -3.84476e-16)
(-1.63015 -0.582848 1.05372e-15)
(-1.70023 -0.699516 -6.53705e-16)
(-1.73466 -0.802888 6.22507e-16)
(-1.70804 -0.871151 -6.1254e-16)
(-1.58029 -0.863125 0)
(-1.29236 -0.70928 -7.29257e-16)
(-0.784236 -0.329332 2.06992e-15)
(-0.116345 0.235414 -4.21236e-15)
(0.144772 0.443086 3.30748e-15)
(0.176492 0.433465 0)
(0.107025 0.249514 -4.27512e-15)
(-0.00913741 1.32221 0)
(-0.093218 1.4748 0)
(-0.217667 1.18676 0)
(-0.406512 0.720557 0)
(-0.62387 0.302823 3.50452e-16)
(-0.784821 0.135634 -4.0162e-16)
(-0.859132 0.127241 3.87704e-16)
(-0.916581 0.137646 -3.43951e-16)
(-1.00873 0.102135 6.23183e-16)
(-1.1158 0.0384345 -2.43689e-19)
(-1.22227 -0.0385133 -5.53327e-16)
(-1.32932 -0.129027 0)
(-1.44043 -0.237986 -4.43723e-16)
(-1.55299 -0.365325 7.85032e-16)
(-1.65956 -0.507102 -1.05757e-15)
(-1.75232 -0.657051 6.44162e-16)
(-1.82172 -0.807064 0)
(-1.85188 -0.944367 5.71507e-16)
(-1.81868 -1.04242 -5.62785e-16)
(-1.67261 -1.04518 5.88135e-16)
(-1.33862 -0.860939 2.84897e-19)
(-0.749165 -0.392071 -1.05084e-15)
(0.0038308 0.273344 0)
(0.186988 0.422874 0)
(0.139773 0.301518 0)
(0.0228546 1.32498 0)
(-0.00390773 1.53505 0)
(-0.0720538 1.34107 1.28632e-16)
(-0.221846 0.921069 -1.50245e-16)
(-0.441286 0.476226 0)
(-0.652936 0.251336 4.2042e-16)
(-0.755352 0.23521 -8.17936e-16)
(-0.808283 0.271538 3.49019e-16)
(-0.906674 0.256382 0)
(-1.03753 0.192482 0)
(-1.16453 0.106911 0)
(-1.28745 0.00625172 5.0711e-16)
(-1.41127 -0.115977 -4.70102e-16)
(-1.53143 -0.261388 -4.08262e-16)
(-1.6455 -0.426412 -3.60223e-16)
(-1.74837 -0.605296 6.48776e-16)
(-1.83301 -0.790885 5.94908e-16)
(-1.88824 -0.97487 -5.56611e-16)
(-1.89983 -1.14269 0)
(-1.85762 -1.25703 0)
(-1.67143 -1.2402 5.64188e-16)
(-1.25765 -0.970422 -6.96722e-16)
(-0.529941 -0.334009 0)
(0.171004 0.379976 3.84953e-15)
(0.166301 0.356443 -7.02273e-15)
(0.0403165 1.2668 0)
(0.0564691 1.54471 0)
(0.0391883 1.41318 -1.19542e-16)
(-0.034943 1.0989 1.37898e-16)
(-0.204504 0.695893 3.5189e-16)
(-0.447949 0.419515 -8.58854e-16)
(-0.587191 0.373731 8.60462e-16)
(-0.647447 0.425933 -3.57381e-16)
(-0.769498 0.43298 0)
(-0.921961 0.372894 5.11568e-16)
(-1.06724 0.275569 -4.84008e-16)
(-1.21149 0.157269 -4.69848e-16)
(-1.34923 0.0125605 3.74582e-19)
(-1.47728 -0.157148 8.66345e-16)
(-1.59261 -0.347523 -1.12231e-15)
(-1.69877 -0.554218 6.63012e-16)
(-1.7913 -0.770358 0)
(-1.86324 -0.988857 0)
(-1.90081 -1.20104 0)
(-1.9054 -1.38692 5.04363e-16)
(-1.81689 -1.4898 -5.0916e-16)
(-1.55015 -1.39509 0)
(-0.98154 -0.926564 0)
(-0.108473 -0.0319251 -2.38981e-15)
(0.183384 0.364461 5.79861e-19)
(0.0479245 1.16466 0)
(0.0952574 1.49043 0)
(0.120394 1.41844 1.16549e-16)
(0.111459 1.20829 -1.25793e-16)
(0.0171736 0.905222 -3.01279e-16)
(-0.20794 0.622625 7.78376e-16)
(-0.372865 0.528282 -8.86264e-16)
(-0.452008 0.590302 3.49162e-16)
(-0.616393 0.633248 0)
(-0.784827 0.573556 -4.70034e-16)
(-0.945976 0.461451 4.47763e-16)
(-1.10461 0.321151 4.37996e-16)
(-1.24931 0.146017 -4.44223e-16)
(-1.37686 -0.0553619 -4.5544e-16)
(-1.48668 -0.274057 -3.96115e-16)
(-1.58721 -0.506248 6.91586e-16)
(-1.67949 -0.747218 6.17735e-16)
(-1.75934 -0.991435 -5.6328e-16)
(-1.81948 -1.23438 0)
(-1.84778 -1.46599 -4.96363e-16)
(-1.8347 -1.64893 9.70547e-16)
(-1.67136 -1.68792 -5.06108e-16)
(-1.25387 -1.39463 0)
(-0.451749 -0.534551 1.21736e-15)
(0.235507 0.38262 -3.89546e-15)
(0.0452586 1.05999 8.65894e-17)
(0.118553 1.43641 6.17344e-17)
(0.185621 1.41038 -1.17879e-16)
(0.224717 1.27247 2.40013e-16)
(0.180332 1.06293 -1.13072e-19)
(0.0219943 0.829369 -3.18198e-16)
(-0.118848 0.683049 3.86411e-16)
(-0.261898 0.781893 3.02883e-16)
(-0.475425 0.86012 -4.65081e-16)
(-0.647336 0.780895 4.26342e-16)
(-0.817701 0.650634 -4.13833e-16)
(-0.976708 0.483238 0)
(-1.11414 0.272828 -4.28647e-16)
(-1.22744 0.0339841 9.34887e-16)
(-1.32256 -0.215103 -4.32371e-16)
(-1.4116 -0.468408 7.42388e-16)
(-1.4975 -0.725707 -6.56239e-16)
(-1.57893 -0.983752 0)
(-1.65188 -1.24371 0)
(-1.70741 -1.50255 5.05816e-16)
(-1.72638 -1.73685 8.89456e-19)
(-1.67112 -1.8703 -4.79957e-16)
(-1.37011 -1.72946 0)
(-0.69581 -0.954843 0)
(0.365838 0.462048 -5.08656e-15)
(0.0358519 0.981635 0)
(0.126637 1.39253 0)
(0.237721 1.39646 0)
(0.315492 1.29482 0)
(0.310364 1.15507 0)
(0.229711 0.98091 0)
(0.100902 0.860856 0)
(-0.142282 1.02741 0)
(-0.364177 1.08632 4.04557e-16)
(-0.526503 0.976173 -3.89348e-16)
(-0.692203 0.824976 0)
(-0.83737 0.625614 0)
(-0.954635 0.374975 0)
(-1.04377 0.0942882 0)
(-1.12132 -0.184202 0)
(-1.20087 -0.452591 0)
(-1.27855 -0.717942 -7.17857e-16)
(-1.35609 -0.977901 1.28191e-15)
(-1.43351 -1.23908 -1.16024e-15)
(-1.50759 -1.50839 5.29887e-16)
(-1.56501 -1.77461 4.92891e-16)
(-1.55857 -1.97568 -4.72916e-16)
(-1.38397 -1.94627 -4.96462e-16)
(-0.885914 -1.33885 6.53829e-16)
(0.143631 0.619525 -3.46524e-15)
(0.0323716 0.917551 0)
(0.136908 1.29258 0)
(0.28642 1.30153 1.28013e-16)
(0.391872 1.24311 -1.14609e-16)
(0.427865 1.18605 0)
(0.37211 1.09786 2.38223e-16)
(0.181981 1.09269 -4.69252e-16)
(-0.0975064 1.28455 1.97034e-16)
(-0.278098 1.27786 3.64083e-16)
(-0.422477 1.14429 -3.62919e-16)
(-0.568348 0.971317 -3.68926e-16)
(-0.690653 0.7359 7.8346e-16)
(-0.783618 0.439188 -4.43719e-16)
(-0.853628 0.114327 -5.46559e-16)
(-0.927892 -0.186986 -5.56369e-16)
(-1.00621 -0.46462 9.26573e-16)
(-1.07554 -0.734974 0)
(-1.14099 -0.990788 7.07129e-16)
(-1.20639 -1.24073 -6.34527e-16)
(-1.2777 -1.50335 0)
(-1.35486 -1.78682 5.19458e-16)
(-1.40432 -2.04528 -9.6523e-16)
(-1.34563 -2.11858 4.81486e-16)
(-1.03345 -1.69983 5.7499e-16)
(-0.355482 0.20373 -3.8745e-15)
(0.0407607 0.823746 1.09434e-16)
(0.173359 1.11238 8.10455e-17)
(0.346787 1.11939 -1.32847e-16)
(0.464473 1.1519 2.26115e-16)
(0.496636 1.21483 -4.29806e-16)
(0.396539 1.2494 2.14505e-16)
(0.153202 1.35094 0)
(-0.0753353 1.4838 3.4726e-16)
(-0.202829 1.41905 -3.42685e-16)
(-0.322133 1.27262 -3.48042e-16)
(-0.439995 1.07742 3.63596e-16)
(-0.539397 0.804735 0)
(-0.616155 0.461904 4.78067e-16)
(-0.688197 0.101735 -6.4297e-16)
(-0.77859 -0.208226 1.28506e-15)
(-0.860608 -0.494734 9.33616e-20)
(-0.924581 -0.776327 -1.75132e-15)
(-0.976815 -1.03297 7.70539e-16)
(-1.02122 -1.26886 -6.9312e-16)
(-1.07049 -1.50982 -1.12962e-18)
(-1.14359 -1.78904 1.11385e-15)
(-1.2354 -2.09253 -5.01949e-16)
(-1.26725 -2.26272 0)
(-1.15678 -2.04724 0)
(-0.739994 -0.45692 0)
(0.0512375 0.669054 0)
(0.237438 0.851343 0)
(0.417698 0.921938 0)
(0.503823 1.1095 0)
(0.46879 1.3046 0)
(0.322474 1.4438 0)
(0.108233 1.57502 -1.69248e-16)
(-0.0402233 1.61258 1.64556e-16)
(-0.123542 1.5184 3.33875e-16)
(-0.212711 1.36943 -3.45624e-16)
(-0.299896 1.15801 -3.68427e-16)
(-0.376787 0.854454 4.21734e-16)
(-0.444708 0.47178 0)
(-0.533185 0.0917776 -7.87285e-16)
(-0.638545 -0.216561 7.50145e-16)
(-0.721484 -0.5178 0)
(-0.787294 -0.819326 0)
(-0.837438 -1.08687 8.18246e-16)
(-0.873384 -1.31401 -1.47812e-15)
(-0.905396 -1.52575 6.70349e-16)
(-0.964413 -1.77461 5.98245e-16)
(-1.08929 -2.09014 -1.05396e-15)
(-1.23486 -2.33256 4.86958e-16)
(-1.33737 -2.29025 0)
(-1.11656 -1.22284 -1.05548e-15)
(0.0715572 0.37948 0)
(0.314215 0.511121 0)
(0.445381 0.806806 1.39943e-16)
(0.451085 1.16493 -1.13974e-16)
(0.372759 1.44409 0)
(0.237212 1.61326 1.69186e-16)
(0.0970105 1.69489 -3.21518e-16)
(0.0175588 1.67167 1.63401e-16)
(-0.0291001 1.56439 3.37544e-16)
(-0.0844621 1.41132 -3.55025e-16)
(-0.140568 1.18144 0)
(-0.197823 0.849415 4.62649e-16)
(-0.261438 0.449842 -6.32959e-16)
(-0.348091 0.094097 -1.02252e-15)
(-0.437334 -0.191788 -9.33934e-16)
(-0.522348 -0.51428 1.31867e-15)
(-0.596372 -0.840092 0)
(-0.654669 -1.12302 8.74802e-16)
(-0.703078 -1.34593 -7.85085e-16)
(-0.744872 -1.52813 0)
(-0.802706 -1.72289 0)
(-0.961749 -1.98109 0)
(-1.24755 -2.25415 0)
(-1.587 -2.31108 4.80727e-16)
(-1.5757 -1.55926 -1.51412e-15)
(0.141444 -0.272103 0)
(0.328307 0.109367 0)
(0.392166 0.791509 0)
(0.359632 1.25314 0)
(0.297903 1.55097 0)
(0.205614 1.70495 0)
(0.131165 1.74852 0)
(0.105877 1.70323 0)
(0.0945475 1.60056 0)
(0.0744463 1.45808 0)
(0.0484359 1.23522 0)
(0.0132623 0.907149 0)
(-0.0298111 0.519292 0)
(-0.0850194 0.189707 0)
(-0.152765 -0.112538 0)
(-0.254065 -0.465163 0)
(-0.335595 -0.818846 0)
(-0.399399 -1.11891 0)
(-0.465525 -1.34049 0)
(-0.531758 -1.50025 0)
(-0.599592 -1.63998 0)
(-0.769338 -1.79289 0)
(-1.15264 -1.92627 0)
(-1.67579 -1.75923 0)
(-1.99967 -0.846512 0)
(0.150959 -0.696325 0)
(0.283884 -0.0408826 0)
(0.311787 0.836238 0)
(0.285247 1.3227 0)
(0.262334 1.60629 0)
(0.211083 1.72618 0)
(0.189112 1.75578 0)
(0.205344 1.69295 0)
(0.226304 1.59823 0)
(0.240575 1.47103 0)
(0.248409 1.27026 0)
(0.241497 0.970139 0)
(0.21551 0.601628 0)
(0.173411 0.285187 0)
(0.158427 0.00601433 0)
(0.0575615 -0.339049 0)
(-0.0242553 -0.699739 0)
(-0.0807912 -1.01601 0)
(-0.151518 -1.24326 0)
(-0.243563 -1.39115 0)
(-0.308113 -1.49984 0)
(-0.382702 -1.57396 0)
(-0.617968 -1.645 0)
(-0.95655 -1.7008 0)
(-1.04501 -1.48244 0)
(0.124404 -0.831262 0)
(0.226901 -0.0245893 0)
(0.250625 0.880829 0)
(0.250677 1.35555 0)
(0.249441 1.61083 0)
(0.253967 1.72074 0)
(0.271299 1.71974 0)
(0.317049 1.64793 0)
(0.366106 1.55697 0)
(0.412988 1.4416 0)
(0.4548 1.26501 0)
(0.481018 1.00211 0)
(0.475073 0.665474 0)
(0.431033 0.343314 0)
(0.382737 0.0176265 0)
(0.328111 -0.31296 0)
(0.275885 -0.651563 0)
(0.23644 -0.959274 0)
(0.182482 -1.18222 0)
(0.0860849 -1.32024 0)
(-0.00626943 -1.43118 0)
(-0.0584903 -1.51021 0)
(-0.16081 -1.50748 0)
(-0.340597 -1.41816 0)
(-0.381481 -1.26801 0)
(0.0923063 -0.837499 0)
(0.194079 0.0109859 0)
(0.228425 0.898427 0)
(0.255898 1.35147 0)
(0.286391 1.58142 0)
(0.319952 1.671 0)
(0.364905 1.65698 0)
(0.43036 1.5785 0)
(0.50159 1.48534 0)
(0.575651 1.37483 0)
(0.647671 1.21665 0)
(0.70775 0.986926 0)
(0.732627 0.683832 0)
(0.706556 0.357469 0)
(0.671004 0.0196408 0)
(0.625988 -0.309385 0)
(0.584599 -0.628337 0)
(0.549747 -0.912795 0)
(0.500138 -1.11977 0)
(0.413572 -1.2458 0)
(0.324888 -1.34984 0)
(0.271435 -1.4407 0)
(0.214425 -1.45934 0)
(0.139998 -1.42195 0)
(0.152616 -1.39706 0)
(0.0385795 -0.658046 0)
(0.181218 0.00542244 0)
(0.23933 0.874476 0)
(0.290997 1.31357 0)
(0.344969 1.52748 0)
(0.399178 1.60132 0)
(0.461853 1.57723 0)
(0.539196 1.49292 0)
(0.624786 1.39264 0)
(0.718391 1.2788 0)
(0.812106 1.12958 0)
(0.897925 0.924762 0)
(0.956714 0.65516 0)
(0.967947 0.344369 0)
(0.955708 0.0126464 0)
(0.923223 -0.308844 0)
(0.885641 -0.611554 0)
(0.851089 -0.875289 0)
(0.799941 -1.06409 0)
(0.713945 -1.18036 0)
(0.631771 -1.2873 0)
(0.589573 -1.39309 0)
(0.557297 -1.43126 0)
(0.528884 -1.41912 0)
(0.56667 -1.46482 0)
(-0.0265924 -0.547454 0)
(0.18816 -0.0629411 0)
(0.274104 0.80551 0)
(0.345941 1.24801 0)
(0.416961 1.45484 0)
(0.484947 1.51999 0)
(0.557499 1.48899 0)
(0.63982 1.39968 0)
(0.731565 1.29038 0)
(0.834468 1.16802 0)
(0.940526 1.01821 0)
(1.04174 0.828107 0)
(1.12418 0.58664 0)
(1.16852 0.300258 0)
(1.18084 -0.0120832 0)
(1.1654 -0.316161 0)
(1.13764 -0.596184 0)
(1.10805 -0.836102 0)
(1.0576 -1.00538 0)
(0.975273 -1.11469 0)
(0.90498 -1.232 0)
(0.876647 -1.35858 0)
(0.860064 -1.42329 0)
(0.855936 -1.45405 0)
(0.913059 -1.55951 0)
(-0.0727863 -0.491369 0)
(0.176175 -0.200359 0)
(0.316751 0.688732 0)
(0.410155 1.16005 0)
(0.495354 1.37214 0)
(0.572572 1.43491 0)
(0.648974 1.40035 0)
(0.730682 1.30713 0)
(0.821132 1.18921 0)
(0.923829 1.05687 0)
(1.0324 0.901707 0)
(1.13794 0.715561 0)
(1.22996 0.491804 0)
(1.29395 0.230412 0)
(1.32667 -0.0536573 0)
(1.33072 -0.330955 0)
(1.32068 -0.58604 0)
(1.3029 -0.802484 0)
(1.2566 -0.952124 0)
(1.18472 -1.05928 0)
(1.13719 -1.19381 0)
(1.12812 -1.34032 0)
(1.12459 -1.42868 0)
(1.13921 -1.49959 0)
(1.21562 -1.65303 0)
(-0.0776769 -0.464713 0)
(0.0869155 -0.445556 0)
(0.338366 0.506565 0)
(0.47194 1.04336 0)
(0.574745 1.27978 0)
(0.659278 1.35022 0)
(0.735366 1.31707 0)
(0.81161 1.22141 0)
(0.894521 1.09573 0)
(0.988872 0.953714 0)
(1.09071 0.791691 0)
(1.19179 0.604753 0)
(1.28331 0.390417 0)
(1.35574 0.149955 0)
(1.40334 -0.104412 0)
(1.42702 -0.352048 0)
(1.43892 -0.582832 0)
(1.43353 -0.775662 0)
(1.39398 -0.907705 0)
(1.34389 -1.0222 0)
(1.33099 -1.18006 0)
(1.34491 -1.34148 0)
(1.35419 -1.44776 0)
(1.38966 -1.55991 0)
(1.48814 -1.75812 0)
(-0.0684031 -0.446345 0)
(-0.0618922 -0.536005 0)
(0.308622 0.276943 0)
(0.516618 0.885955 0)
(0.648991 1.17134 0)
(0.743828 1.26467 0)
(0.817636 1.24104 0)
(0.884038 1.14605 0)
(0.95346 1.01361 0)
(1.03282 0.861723 0)
(1.12135 0.692901 0)
(1.21218 0.504821 0)
(1.29812 0.29739 0)
(1.37289 0.0738536 0)
(1.42977 -0.155013 0)
(1.47099 -0.379352 0)
(1.50148 -0.590126 0)
(1.50381 -0.759247 0)
(1.47821 -0.881319 0)
(1.46764 -1.01701 0)
(1.49773 -1.19798 0)
(1.53227 -1.36328 0)
(1.55624 -1.48404 0)
(1.61862 -1.63938 0)
(1.73783 -1.87446 0)
(-0.0517496 -0.412944 0)
(-0.0575074 -0.488952 0)
(0.205681 -0.026482 0)
(0.522319 0.6653 0)
(0.707924 1.03228 0)
(0.822958 1.17149 0)
(0.896886 1.17033 0)
(0.951222 1.08279 0)
(1.00229 0.946614 0)
(1.06122 0.785428 0)
(1.13104 0.608733 0)
(1.20787 0.41865 0)
(1.28618 0.216145 0)
(1.35905 0.00489395 0)
(1.42097 -0.208252 0)
(1.47603 -0.4187 0)
(1.51755 -0.60998 0)
(1.52526 -0.75878 0)
(1.53504 -0.88895 0)
(1.58112 -1.05659 0)
(1.64934 -1.24733 0)
(1.69629 -1.40371 0)
(1.739 -1.54151 0)
(1.8327 -1.7407 0)
(1.96345 -1.99698 0)
(-0.0292517 -0.378073 0)
(-0.0152763 -0.482503 0)
(0.0268708 -0.391102 0)
(0.437766 0.333471 0)
(0.722833 0.831464 0)
(0.885167 1.05561 0)
(0.970819 1.10016 0)
(1.0163 1.03225 0)
(1.04747 0.898785 0)
(1.08206 0.730749 0)
(1.12897 0.545137 0)
(1.18798 0.348976 0)
(1.25448 0.145831 0)
(1.32145 -0.0611074 0)
(1.38792 -0.269402 0)
(1.44929 -0.47039 0)
(1.49759 -0.643843 0)
(1.5384 -0.789596 0)
(1.60542 -0.949679 0)
(1.70398 -1.14053 0)
(1.7878 -1.31609 0)
(1.83936 -1.45924 0)
(1.90883 -1.62416 0)
(2.03089 -1.861 0)
(2.15571 -2.11362 0)
(0.00888751 -0.362359 0)
(0.0828299 -0.485622 0)
(0.0943423 -0.425011 0)
(0.258616 -0.0834264 0)
(0.652699 0.530338 0)
(0.902898 0.891912 0)
(1.02624 1.01909 0)
(1.07631 0.991379 0)
(1.09247 0.871968 0)
(1.10321 0.70179 0)
(1.1245 0.505963 0)
(1.16219 0.299019 0)
(1.21332 0.0876099 0)
(1.27357 -0.125712 0)
(1.34235 -0.336913 0)
(1.41466 -0.533401 0)
(1.48907 -0.706136 0)
(1.58398 -0.875977 0)
(1.70841 -1.06483 0)
(1.82563 -1.24489 0)
(1.90076 -1.38731 0)
(1.96233 -1.53149 0)
(2.06684 -1.73388 0)
(2.20327 -1.9878 0)
(2.30275 -2.20343 0)
(0.0415709 -0.413981 0)
(0.156441 -0.5333 0)
(0.251524 -0.436977 0)
(0.270972 -0.312506 0)
(0.502756 0.14676 0)
(0.834108 0.643407 0)
(1.03395 0.903715 0)
(1.11691 0.945399 0)
(1.12698 0.862276 0)
(1.12268 0.695428 0)
(1.12376 0.489613 0)
(1.14067 0.267199 0)
(1.17583 0.0393318 0)
(1.23309 -0.191377 0)
(1.3118 -0.416306 0)
(1.41022 -0.624819 0)
(1.53059 -0.820277 0)
(1.67391 -1.01606 0)
(1.81218 -1.19771 0)
(1.90981 -1.33698 0)
(1.97762 -1.45877 0)
(2.07007 -1.63112 0)
(2.20876 -1.86498 0)
(2.33502 -2.10055 0)
(2.39445 -2.25361 0)
(0.0749859 -0.541326 0)
(0.21884 -0.654525 0)
(0.338716 -0.503051 0)
(0.41131 -0.281797 0)
(0.434817 -0.0929261 0)
(0.680343 0.337182 0)
(0.943636 0.725128 0)
(1.07984 0.883601 0)
(1.10889 0.848544 0)
(1.11416 0.697459 0)
(1.10903 0.483607 0)
(1.11671 0.242428 0)
(1.14589 -0.0108497 0)
(1.20953 -0.273118 0)
(1.30804 -0.526179 0)
(1.43825 -0.760047 0)
(1.58991 -0.975523 0)
(1.73836 -1.1647 0)
(1.85323 -1.30694 0)
(1.93692 -1.41511 0)
(2.03252 -1.55488 0)
(2.17269 -1.76607 0)
(2.32196 -1.99763 0)
(2.40727 -2.17885 0)
(2.42498 -2.26955 0)
(0.0904639 -0.711988 0)
(0.242813 -0.784007 0)
(0.342239 -0.591821 0)
(0.436442 -0.299845 0)
(0.480586 -0.0729064 0)
(0.53823 0.144358 0)
(0.755272 0.514314 0)
(0.950021 0.77664 0)
(1.02911 0.803718 0)
(1.04592 0.69566 0)
(1.04964 0.472655 0)
(1.06183 0.209605 0)
(1.09365 -0.0795447 0)
(1.16395 -0.380586 0)
(1.27711 -0.66477 0)
(1.42616 -0.918835 0)
(1.58354 -1.13178 0)
(1.71989 -1.29055 0)
(1.83154 -1.40285 0)
(1.94879 -1.52141 0)
(2.10033 -1.70097 0)
(2.26686 -1.91875 0)
(2.3822 -2.10246 0)
(2.42349 -2.21591 0)
(2.42234 -2.26323 0)
(0.0761729 -0.886682 0)
(0.201749 -0.894306 0)
(0.260354 -0.658867 0)
(0.343571 -0.354085 0)
(0.402484 -0.0632535 0)
(0.399353 0.114177 0)
(0.497685 0.361178 0)
(0.688092 0.647786 0)
(0.814172 0.751521 0)
(0.873193 0.65886 0)
(0.904758 0.440319 0)
(0.926297 0.161513 0)
(0.949725 -0.159222 0)
(1.01504 -0.497039 0)
(1.15781 -0.819074 0)
(1.34211 -1.08913 0)
(1.51984 -1.28741 0)
(1.67686 -1.42323 0)
(1.8307 -1.53883 0)
(2.00159 -1.68764 0)
(2.17951 -1.8748 0)
(2.312 -2.04538 0)
(2.38109 -2.15899 0)
(2.38343 -2.22235 0)
(2.3772 -2.25587 0)
(0.0327366 -1.0187 0)
(0.0941476 -0.958562 0)
(0.102644 -0.690025 0)
(0.106447 -0.366187 0)
(0.158722 -0.0775518 0)
(0.179049 0.124393 0)
(0.177635 0.29228 0)
(0.313338 0.535539 0)
(0.45957 0.661978 0)
(0.557292 0.596091 0)
(0.622316 0.387493 0)
(0.660063 0.10906 0)
(0.648916 -0.222428 0)
(0.795428 -0.642086 0)
(1.04658 -1.02749 0)
(1.29477 -1.30171 0)
(1.50835 -1.47776 0)
(1.70075 -1.6026 0)
(1.8869 -1.72672 0)
(2.06356 -1.87204 0)
(2.20104 -2.01111 0)
(2.27029 -2.11151 0)
(2.29296 -2.17594 0)
(2.30029 -2.22202 0)
(2.31107 -2.26075 0)
(-0.0344806 -1.07496 0)
(-0.0660089 -0.961874 0)
(-0.116103 -0.653542 0)
(-0.146349 -0.318134 0)
(-0.183154 -0.0457746 0)
(-0.143161 0.148987 0)
(-0.258535 0.286054 0)
(-0.167963 0.473224 0)
(-0.0259437 0.570826 0)
(0.102367 0.500124 0)
(0.229763 0.317317 0)
(0.22873 0.113655 0)
(0.386756 -0.34292 0)
(0.750006 -0.912873 0)
(1.07853 -1.31651 0)
(1.34034 -1.5526 0)
(1.55795 -1.69374 0)
(1.74989 -1.79986 0)
(1.91601 -1.90399 0)
(2.04633 -2.00303 0)
(2.12358 -2.07977 0)
(2.16406 -2.13771 0)
(2.19024 -2.19011 0)
(2.21732 -2.24166 0)
(2.25145 -2.29072 0)
(-0.118383 -1.03212 0)
(-0.261575 -0.848994 0)
(-0.365398 -0.559867 0)
(-0.431716 -0.248928 0)
(-0.525019 0.0120628 0)
(-0.629783 0.196455 0)
(-0.73364 0.333919 0)
(-0.677784 0.446834 0)
(-0.539116 0.490597 0)
(-0.385916 0.431563 0)
(-0.257262 0.302752 0)
(-0.0130173 0.131467 0)
(0.47123 -0.648513 0)
(0.859596 -1.25732 0)
(1.15148 -1.6053 0)
(1.38402 -1.78614 0)
(1.5781 -1.88775 0)
(1.73739 -1.96095 0)
(1.86092 -2.02391 0)
(1.94627 -2.07617 0)
(2.00638 -2.12311 0)
(2.05544 -2.1743 0)
(2.10284 -2.23015 0)
(2.15165 -2.28617 0)
(2.20144 -2.3382 0)
(-0.198987 -0.802623 0)
(-0.464952 -0.646548 0)
(-0.659331 -0.398233 0)
(-0.813763 -0.138813 0)
(-0.967729 0.0828754 0)
(-1.10192 0.258319 0)
(-1.17484 0.387958 0)
(-1.13149 0.455805 0)
(-0.950276 0.485581 0)
(-0.672151 0.434291 0)
(-0.306195 0.217656 0)
(0.19207 -0.244774 0)
(0.626791 -1.01229 0)
(0.949062 -1.56363 0)
(1.19857 -1.85019 0)
(1.39808 -1.98054 0)
(1.55641 -2.04127 0)
(1.67962 -2.07765 0)
(1.77343 -2.10767 0)
(1.8496 -2.14082 0)
(1.91746 -2.18349 0)
(1.98163 -2.23443 0)
(2.04279 -2.28875 0)
(2.10036 -2.34207 0)
(2.15474 -2.39185 0)
(-0.250664 -0.462129 0)
(-0.609749 -0.358544 0)
(-0.893009 -0.158247 0)
(-1.10659 0.040025 0)
(-1.26459 0.198607 0)
(-1.34491 0.302127 0)
(-1.33507 0.3417 0)
(-1.10807 0.334888 0)
(-0.7406 0.218679 0)
(-0.317125 0.0206754 0)
(0.013117 -0.0631902 0)
(0.419491 -0.602247 0)
(0.779552 -1.32514 0)
(1.05192 -1.81654 0)
(1.25812 -2.04772 0)
(1.41476 -2.13316 0)
(1.53543 -2.15987 0)
(1.63218 -2.17157 0)
(1.7156 -2.18791 0)
(1.79215 -2.21608 0)
(1.86424 -2.25514 0)
(1.93155 -2.30107 0)
(1.99352 -2.34981 0)
(2.05067 -2.39852 0)
(2.1048 -2.44586 0)
(-0.245933 -0.137893 0)
(-0.582074 -0.0578262 0)
(-0.840036 0.069012 0)
(-1.01736 0.170367 0)
(-1.08318 0.179258 0)
(-1.01452 0.0996589 0)
(-0.731289 -0.128898 0)
(-0.309593 -0.445096 0)
(0.0447648 -0.645794 0)
(0.201447 -0.528678 0)
(0.382247 -0.464097 0)
(0.675388 -0.910402 0)
(0.960911 -1.57102 0)
(1.17562 -2.0118 0)
(1.32903 -2.19658 0)
(1.44166 -2.24842 0)
(1.53139 -2.25397 0)
(1.6104 -2.25429 0)
(1.68462 -2.26499 0)
(1.75554 -2.28869 0)
(1.82259 -2.32274 0)
(1.8851 -2.36338 0)
(1.94321 -2.40749 0)
(1.99809 -2.45317 0)
(2.05136 -2.49951 0)
(-0.171087 0.13923 0)
(-0.401597 0.214902 0)
(-0.564257 0.263827 0)
(-0.639463 0.251502 0)
(-0.556241 0.110335 0)
(-0.270965 -0.230837 0)
(0.027012 -0.55569 0)
(0.225019 -0.76128 0)
(0.418246 -0.900129 0)
(0.537023 -0.81188 0)
(0.67823 -0.761035 0)
(0.903625 -1.16108 0)
(1.13139 -1.77002 0)
(1.29309 -2.16131 0)
(1.39788 -2.30407 0)
(1.47304 -2.33174 0)
(1.53733 -2.32629 0)
(1.59912 -2.32227 0)
(1.66072 -2.3307 0)
(1.72166 -2.352 0)
(1.78078 -2.38305 0)
(1.8374 -2.42055 0)
(1.89169 -2.46216 0)
(1.94436 -2.50646 0)
(1.99645 -2.55265 0)
(-0.0800482 0.368516 0)
(-0.171408 0.389774 0)
(-0.211417 0.392097 0)
(-0.165623 0.299345 0)
(0.0539232 -0.022273 0)
(0.315291 -0.386135 0)
(0.36864 -0.637844 0)
(0.459437 -0.879269 0)
(0.601518 -1.02429 0)
(0.730419 -0.99151 0)
(0.869137 -0.987548 0)
(1.07137 -1.37552 0)
(1.26931 -1.93781 0)
(1.39027 -2.27173 0)
(1.45469 -2.3724 0)
(1.49868 -2.38492 0)
(1.54053 -2.37699 0)
(1.58586 -2.3746 0)
(1.63501 -2.38482 0)
(1.68642 -2.40665 0)
(1.73839 -2.43707 0)
(1.78989 -2.47347 0)
(1.84061 -2.5141 0)
(1.89082 -2.55792 0)
(1.94097 -2.60433 0)
(0.019383 0.39071 0)
(0.0375522 0.456929 0)
(0.0949305 0.39634 0)
(0.209398 0.254873 0)
(0.417396 -0.0904741 0)
(0.511771 -0.445219 0)
(0.53515 -0.784263 0)
(0.604933 -1.03727 0)
(0.727097 -1.15985 0)
(0.83772 -1.13494 0)
(0.971446 -1.17513 0)
(1.18333 -1.57784 0)
(1.36997 -2.08668 0)
(1.45546 -2.34522 0)
(1.48764 -2.40699 0)
(1.50823 -2.41418 0)
(1.53316 -2.41067 0)
(1.56598 -2.41452 0)
(1.60562 -2.42957 0)
(1.64966 -2.45415 0)
(1.69588 -2.4857 0)
(1.74289 -2.52233 0)
(1.79008 -2.56291 0)
(1.83729 -2.60678 0)
(1.88469 -2.65358 0)
(0.0759047 0.301358 0)
(0.193777 0.407045 0)
(0.310311 0.341484 0)
(0.436673 0.15463 0)
(0.523342 -0.194618 0)
(0.536199 -0.596445 0)
(0.55556 -0.9316 0)
(0.645567 -1.15824 0)
(0.754053 -1.25774 0)
(0.848995 -1.25452 0)
(1.01657 -1.37248 0)
(1.2633 -1.79231 0)
(1.43018 -2.21769 0)
(1.48039 -2.38733 0)
(1.491 -2.42142 0)
(1.49796 -2.42863 0)
(1.51304 -2.43334 0)
(1.53854 -2.44603 0)
(1.57227 -2.46765 0)
(1.61119 -2.4962 0)
(1.65287 -2.52978 0)
(1.69584 -2.56733 0)
(1.73935 -2.60833 0)
(1.78321 -2.65252 0)
(1.8274 -2.69979 0)
(0.0651354 0.13897 0)
(0.214332 0.219082 0)
(0.354311 0.189777 0)
(0.45001 0.0309225 0)
(0.425686 -0.285827 0)
(0.353268 -0.701927 0)
(0.41405 -1.04327 0)
(0.558801 -1.26426 0)
(0.687824 -1.36971 0)
(0.828449 -1.41954 0)
(1.07158 -1.62044 0)
(1.33158 -2.00868 0)
(1.45087 -2.31295 0)
(1.47175 -2.40522 0)
(1.46935 -2.42477 0)
(1.46949 -2.43577 0)
(1.4813 -2.45085 0)
(1.5043 -2.47332 0)
(1.53517 -2.50178 0)
(1.57068 -2.53431 0)