/*--------------------------------*- C++ -*----------------------------------*\
  =========                 |
  \\      /  F ield         | OpenFOAM: The Open Source CFD Toolbox
   \\    /   O peration     | Website:  https://openfoam.org
    \\  /    A nd           | Version:  13
     \\/     M anipulation  |
\*---------------------------------------------------------------------------*/
FoamFile
{
    format      ascii;
    class       volScalarField;
    location    "13";
    object      p;
}
// * * * * * * * * * * * * * * * * * * * * * * * * * * * * * * * * * * * * * //

dimensions      [0 2 -2 0 0 0 0];

internalField   nonuniform List<scalar> 
6440
(
146.853
146.854
146.855
146.857
146.858
146.859
146.859
146.858
146.847
146.815
146.772
146.739
146.734
146.759
146.807
146.867
146.92
146.949
146.96
146.959
146.953
146.95
146.949
146.951
146.952
146.852
146.853
146.855
146.858
146.861
146.863
146.863
146.854
146.824
146.771
146.712
146.669
146.661
146.698
146.767
146.84
146.895
146.928
146.939
146.936
146.932
146.931
146.937
146.945
146.947
146.85
146.85
146.852
146.857
146.863
146.866
146.858
146.827
146.766
146.692
146.626
146.592
146.599
146.645
146.718
146.795
146.853
146.882
146.888
146.886
146.884
146.889
146.901
146.915
146.918
146.846
146.847
146.849
146.855
146.863
146.867
146.853
146.805
146.729
146.653
146.603
146.583
146.592
146.631
146.695
146.762
146.807
146.821
146.819
146.816
146.819
146.831
146.853
146.874
146.883
146.842
146.844
146.846
146.849
146.854
146.856
146.843
146.799
146.731
146.667
146.629
146.622
146.639
146.675
146.716
146.746
146.757
146.755
146.744
146.742
146.753
146.78
146.816
146.85
146.864
146.838
146.84
146.835
146.826
146.818
146.811
146.802
146.78
146.748
146.721
146.711
146.719
146.737
146.752
146.759
146.755
146.737
146.713
146.697
146.699
146.72
146.76
146.81
146.855
146.874
146.831
146.825
146.792
146.748
146.718
146.706
146.709
146.727
146.752
146.779
146.806
146.828
146.837
146.825
146.797
146.767
146.734
146.705
146.692
146.698
146.728
146.778
146.833
146.88
146.897
146.8
146.767
146.68
146.588
146.54
146.541
146.58
146.651
146.739
146.823
146.883
146.911
146.906
146.868
146.823
146.783
146.75
146.725
146.719
146.737
146.776
146.823
146.87
146.905
146.914
146.712
146.647
146.525
146.407
146.352
146.368
146.451
146.586
146.732
146.854
146.928
146.948
146.93
146.883
146.828
146.784
146.761
146.756
146.77
146.8
146.84
146.876
146.905
146.923
146.928
146.602
146.527
146.407
146.299
146.26
146.285
146.389
146.556
146.728
146.862
146.937
146.951
146.921
146.867
146.811
146.772
146.762
146.781
146.819
146.863
146.9
146.922
146.931
146.938
146.943
146.543
146.461
146.361
146.289
146.268
146.29
146.398
146.562
146.726
146.845
146.898
146.895
146.86
146.813
146.771
146.75
146.762
146.807
146.868
146.923
146.952
146.96
146.956
146.956
146.958
146.56
146.478
146.395
146.346
146.331
146.364
146.46
146.588
146.706
146.778
146.792
146.765
146.72
146.675
146.65
146.661
146.72
146.817
146.919
146.98
146.99
146.984
146.978
146.971
146.968
146.654
146.595
146.518
146.467
146.447
146.465
146.52
146.589
146.64
146.647
146.61
146.544
146.477
146.433
146.427
146.465
146.556
146.695
146.845
146.937
146.952
146.945
146.955
146.963
146.964
146.847
146.802
146.716
146.641
146.589
146.565
146.561
146.556
146.527
146.462
146.369
146.268
146.194
146.167
146.184
146.241
146.342
146.479
146.618
146.703
146.724
146.742
146.832
146.929
146.961
147.079
147.03
146.935
146.831
146.739
146.661
146.588
146.505
146.398
146.266
146.129
146.016
145.95
145.942
145.977
146.044
146.141
146.262
146.386
146.478
146.519
146.551
146.703
146.927
146.987
147.251
147.203
147.108
146.991
146.869
146.743
146.606
146.451
146.274
146.093
145.928
145.818
145.777
145.789
145.832
145.901
145.995
146.111
146.237
146.351
146.431
146.515
146.736
147.04
147.084
147.34
147.3
147.213
147.094
146.954
146.792
146.607
146.394
146.162
145.941
145.77
145.676
145.654
145.673
145.725
145.803
145.908
146.033
146.176
146.322
146.456
146.596
146.878
147.23
147.225
147.372
147.341
147.26
147.143
146.992
146.809
146.587
146.334
146.067
145.824
145.65
145.572
145.561
145.595
145.658
145.754
145.873
146.014
146.171
146.339
146.5
146.667
146.96
147.281
147.235
147.379
147.35
147.273
147.157
147.003
146.806
146.568
146.293
146.009
145.75
145.576
145.506
145.51
145.556
145.637
145.746
145.881
146.036
146.206
146.383
146.553
146.713
146.928
147.079
146.91
147.373
147.347
147.271
147.158
147.004
146.806
146.564
146.286
145.993
145.729
145.551
145.484
145.497
145.556
145.651
145.774
145.92
146.086
146.267
146.455
146.638
146.809
146.987
146.935
146.58
147.366
147.344
147.271
147.162
147.017
146.83
146.602
146.34
146.06
145.8
145.608
145.522
145.531
145.605
145.713
145.838
145.983
146.149
146.332
146.524
146.723
146.933
147.15
147.227
147.153
147.355
147.345
147.28
147.18
147.051
146.889
146.69
146.46
146.208
145.966
145.773
145.668
145.66
145.723
145.819
145.929
146.058
146.211
146.383
146.567
146.758
146.948
147.126
147.295
147.496
147.341
147.343
147.292
147.204
147.099
146.969
146.811
146.625
146.419
146.211
146.033
145.916
145.88
145.911
145.977
146.062
146.169
146.299
146.449
146.614
146.786
146.956
147.112
147.249
147.364
147.327
147.333
147.301
147.232
147.149
147.055
146.941
146.805
146.651
146.487
146.333
146.213
146.147
146.137
146.163
146.214
146.29
146.389
146.511
146.648
146.791
146.93
147.055
147.164
147.247
147.315
147.316
147.297
147.254
147.205
147.149
147.081
146.996
146.892
146.77
146.64
146.518
146.428
146.377
146.361
146.373
146.413
146.479
146.567
146.671
146.781
146.885
146.975
147.047
147.092
147.3
147.289
147.272
147.26
147.257
147.256
147.241
147.207
147.148
147.06
146.945
146.82
146.703
146.614
146.556
146.529
146.533
146.563
146.615
146.682
146.754
146.822
146.878
146.917
146.936
147.294
147.266
147.239
147.24
147.289
147.357
147.41
147.433
147.418
147.359
147.254
147.113
146.971
146.844
146.747
146.682
146.647
146.639
146.651
146.679
146.715
146.747
146.77
146.783
146.776
147.315
147.269
147.23
147.236
147.305
147.425
147.543
147.62
147.647
147.608
147.499
147.348
147.181
147.029
146.902
146.805
146.737
146.695
146.671
146.663
146.663
146.662
146.658
146.644
146.621
147.356
147.297
147.232
147.225
147.297
147.423
147.551
147.638
147.671
147.645
147.555
147.416
147.263
147.114
146.981
146.869
146.783
146.717
146.667
146.63
146.604
146.58
146.551
146.516
146.479
147.374
147.301
147.203
147.156
147.188
147.293
147.42
147.518
147.561
147.547
147.475
147.368
147.241
147.113
146.993
146.887
146.794
146.714
146.647
146.59
146.543
146.497
146.45
146.402
146.352
147.326
147.235
147.115
147.032
147.034
147.108
147.22
147.324
147.384
147.387
147.343
147.261
147.164
147.062
146.962
146.866
146.777
146.695
146.619
146.551
146.489
146.426
146.362
146.301
146.234
147.189
147.105
146.991
146.904
146.879
146.924
147.014
147.111
147.18
147.201
147.178
147.128
147.057
146.979
146.898
146.817
146.736
146.657
146.582
146.509
146.438
146.364
146.289
146.213
146.14
146.98
146.912
146.812
146.718
146.679
146.697
146.767
146.858
146.937
146.981
146.989
146.966
146.926
146.874
146.813
146.747
146.677
146.606
146.535
146.463
146.39
146.311
146.228
146.151
146.085
146.723
146.667
146.576
146.482
146.422
146.419
146.47
146.558
146.653
146.728
146.769
146.786
146.778
146.753
146.715
146.665
146.608
146.546
146.483
146.417
146.347
146.27
146.191
146.123
146.058
146.438
146.388
146.302
146.197
146.121
146.092
146.124
146.212
146.329
146.443
146.532
146.587
146.617
146.622
146.606
146.573
146.53
146.481
146.428
146.371
146.309
146.238
146.173
146.107
146.014
146.144
146.093
146
145.88
145.775
145.721
145.732
145.823
145.973
146.138
146.278
146.382
146.449
146.482
146.487
146.473
146.445
146.41
146.368
146.319
146.266
146.209
146.143
146.055
145.928
145.861
145.8
145.692
145.542
145.4
145.32
145.305
145.404
145.597
145.823
146.024
146.174
146.276
146.337
146.364
146.367
146.355
146.332
146.298
146.256
146.208
146.149
146.066
145.951
145.788
145.611
145.535
145.401
145.213
145.031
144.921
144.881
144.992
145.231
145.52
145.776
145.97
146.105
146.19
146.239
146.26
146.26
146.242
146.213
146.173
146.118
146.046
145.945
145.807
145.632
145.416
145.323
145.164
144.943
144.712
144.598
144.538
144.65
144.92
145.254
145.552
145.781
145.943
146.051
146.117
146.151
146.156
146.143
146.114
146.069
146.007
145.922
145.808
145.663
145.481
145.303
145.195
145.019
144.768
144.517
144.413
144.356
144.451
144.711
145.053
145.372
145.62
145.802
145.926
146.003
146.041
146.051
146.039
146.007
145.957
145.888
145.795
145.674
145.521
145.338
145.287
145.172
144.99
144.745
144.479
144.394
144.369
144.429
144.632
144.941
145.254
145.507
145.694
145.822
145.899
145.938
145.949
145.935
145.9
145.846
145.77
145.669
145.541
145.386
145.198
145.381
145.27
145.097
144.867
144.635
144.527
144.53
144.551
144.676
144.929
145.212
145.445
145.623
145.743
145.813
145.848
145.854
145.836
145.796
145.735
145.652
145.546
145.415
145.256
145.068
145.574
145.474
145.321
145.128
144.924
144.794
144.784
144.759
144.822
145.015
145.242
145.439
145.592
145.691
145.749
145.772
145.77
145.745
145.699
145.632
145.544
145.433
145.297
145.136
144.946
145.841
145.758
145.63
145.451
145.291
145.149
145.089
145.015
145.041
145.174
145.338
145.483
145.598
145.669
145.705
145.713
145.7
145.666
145.612
145.539
145.445
145.329
145.191
145.027
144.838
146.142
146.073
145.962
145.799
145.637
145.501
145.396
145.309
145.312
145.38
145.471
145.568
145.632
145.668
145.68
145.671
145.644
145.599
145.537
145.456
145.357
145.236
145.095
144.93
144.741
146.427
146.371
146.268
146.113
145.939
145.812
145.718
145.653
145.615
145.606
145.625
145.666
145.682
145.683
145.671
145.644
145.602
145.545
145.473
145.385
145.28
145.156
145.011
144.846
144.657
146.656
146.614
146.517
146.388
146.24
146.149
146.093
146.013
145.908
145.826
145.775
145.763
145.738
145.709
145.673
145.628
145.571
145.503
145.422
145.326
145.215
145.087
144.94
144.774
144.587
146.795
146.777
146.702
146.618
146.535
146.493
146.449
146.314
146.151
146.016
145.916
145.855
145.797
145.741
145.683
145.621
145.55
145.471
145.38
145.278
145.161
145.03
144.881
144.715
144.53
146.851
146.852
146.817
146.785
146.774
146.779
146.714
146.521
146.328
146.16
146.037
145.94
145.853
145.774
145.697
145.619
145.537
145.447
145.348
145.239
145.118
144.983
144.834
144.668
144.484
146.86
146.864
146.866
146.893
146.933
146.971
146.864
146.64
146.44
146.258
146.123
146.005
145.899
145.803
145.712
145.621
145.528
145.43
145.324
145.21
145.084
144.947
144.797
144.632
144.45
146.86
146.859
146.877
146.942
147.016
147.043
146.91
146.701
146.502
146.319
146.177
146.048
145.933
145.827
145.725
145.625
145.523
145.418
145.306
145.187
145.059
144.92
144.769
144.605
144.427
146.864
146.856
146.872
146.933
147.026
147.026
146.894
146.71
146.523
146.355
146.208
146.077
145.957
145.844
145.736
145.629
145.521
145.41
145.294
145.172
145.041
144.901
144.751
144.589
144.413
146.87
146.855
146.859
146.889
146.955
146.949
146.84
146.671
146.505
146.363
146.224
146.094
145.973
145.857
145.744
145.632
145.52
145.405
145.286
145.161
145.029
144.889
144.74
144.579
144.408
146.884
146.862
146.839
146.84
146.841
146.848
146.76
146.621
146.486
146.357
146.227
146.102
145.981
145.864
145.749
145.635
145.52
145.403
145.282
145.155
145.023
144.883
144.735
144.578
144.41
146.903
146.883
146.831
146.816
146.81
146.791
146.693
146.586
146.469
146.346
146.224
146.104
145.985
145.868
145.752
145.637
145.521
145.402
145.28
145.154
145.021
144.883
144.737
144.582
144.419
146.923
146.914
146.86
146.823
146.82
146.766
146.663
146.562
146.451
146.335
146.218
146.102
145.985
145.87
145.754
145.639
145.522
145.403
145.281
145.155
145.024
144.887
144.743
144.593
144.434
146.936
146.935
146.903
146.873
146.846
146.755
146.655
146.547
146.436
146.324
146.212
146.098
145.984
145.87
145.756
145.641
145.524
145.406
145.284
145.159
145.029
144.895
144.754
144.607
144.453
146.941
146.947
146.941
146.933
146.869
146.745
146.647
146.535
146.424
146.315
146.204
146.093
145.982
145.87
145.757
145.643
145.527
145.41
145.289
145.166
145.038
144.906
144.768
144.626
144.476
146.942
146.95
146.961
146.957
146.869
146.733
146.63
146.522
146.413
146.305
146.197
146.088
145.979
145.869
145.757
145.645
145.531
145.415
145.296
145.174
145.049
144.92
144.786
144.647
144.503
146.937
146.944
146.962
146.951
146.848
146.726
146.616
146.508
146.402
146.296
146.189
146.083
145.976
145.867
145.758
145.647
145.535
145.421
145.304
145.185
145.062
144.936
144.805
144.671
144.532
146.926
146.93
146.947
146.929
146.818
146.712
146.602
146.494
146.389
146.286
146.182
146.077
145.972
145.866
145.759
145.65
145.54
145.428
145.313
145.196
145.077
144.954
144.828
144.697
144.563
146.915
146.917
146.925
146.898
146.782
146.685
146.582
146.478
146.376
146.275
146.174
146.071
145.968
145.864
145.759
145.653
145.545
145.435
145.323
145.209
145.093
144.973
144.85
144.725
144.596
146.906
146.91
146.908
146.858
146.751
146.659
146.561
146.461
146.363
146.264
146.165
146.065
145.965
145.863
145.76
145.656
145.55
145.443
145.334
145.223
145.109
144.993
144.875
144.754
144.63
146.895
146.903
146.896
146.824
146.731
146.637
146.541
146.445
146.349
146.253
146.156
146.059
145.961
145.861
145.761
145.659
145.556
145.452
145.345
145.237
145.127
145.015
144.9
144.784
144.664
146.882
146.89
146.885
146.79
146.706
146.615
146.521
146.428
146.335
146.242
146.148
146.053
145.957
145.86
145.762
145.663
145.562
145.46
145.357
145.252
145.145
145.036
144.926
144.813
144.699
146.868
146.875
146.86
146.756
146.678
146.591
146.502
146.412
146.321
146.23
146.139
146.046
145.953
145.858
145.763
145.666
145.568
145.469
145.369
145.267
145.163
145.058
144.952
144.844
144.734
146.853
146.861
146.826
146.727
146.65
146.567
146.482
146.395
146.307
146.219
146.13
146.04
145.949
145.857
145.764
145.67
145.574
145.478
145.381
145.282
145.182
145.081
144.978
144.874
144.769
146.837
146.846
146.79
146.708
146.627
146.545
146.463
146.379
146.294
146.207
146.121
146.033
145.945
145.855
145.764
145.673
145.581
145.487
145.393
145.297
145.201
145.103
145.004
144.905
144.804
146.822
146.833
146.757
146.691
146.606
146.524
146.444
146.362
146.279
146.196
146.111
146.026
145.94
145.853
145.765
145.676
145.587
145.496
145.405
145.312
145.219
145.125
145.03
144.934
144.838
146.81
146.82
146.726
146.668
146.586
146.504
146.425
146.345
146.265
146.183
146.102
146.019
145.935
145.851
145.765
145.679
145.592
145.505
145.416
145.327
145.237
145.147
145.055
144.964
144.871
146.807
146.806
146.698
146.643
146.564
146.484
146.406
146.328
146.25
146.171
146.091
146.011
145.93
145.848
145.765
145.682
145.598
145.513
145.428
145.341
145.255
145.168
145.08
144.992
144.904
146.807
146.788
146.678
146.617
146.541
146.463
146.387
146.311
146.234
146.157
146.08
146.002
145.924
145.844
145.764
145.684
145.603
145.521
145.438
145.355
145.272
145.188
145.104
145.02
144.935
146.799
146.766
146.661
146.592
146.518
146.441
146.367
146.292
146.218
146.143
146.068
145.993
145.917
145.84
145.763
145.685
145.607
145.528
145.448
145.368
145.288
145.207
145.127
145.045
144.965
146.781
146.735
146.641
146.566
146.492
146.418
146.345
146.273
146.201
146.129
146.056
145.983
145.91
145.836
145.761
145.686
145.61
145.534
145.458
145.381
145.303
145.226
145.148
145.071
144.993
146.754
146.696
146.613
146.536
146.464
146.393
146.323
146.253
146.184
146.114
146.044
145.974
145.903
145.831
145.759
145.687
145.614
145.54
145.466
145.392
145.318
145.244
145.17
145.095
145.021
146.712
146.645
146.574
146.501
146.433
146.366
146.299
146.232
146.166
146.099
146.031
145.963
145.895
145.826
145.757
145.687
145.617
145.546
145.475
145.404
145.332
145.261
145.19
145.119
145.048
146.654
146.588
146.529
146.463
146.4
146.337
146.274
146.211
146.147
146.083
146.018
145.953
145.888
145.821
145.754
145.687
145.619
145.551
145.483
145.415
145.346
145.278
145.21
145.142
145.074
146.588
146.531
146.48
146.421
146.365
146.306
146.248
146.188
146.128
146.067
146.005
145.943
145.88
145.816
145.752
145.687
145.622
145.556
145.491
145.425
145.359
145.294
145.229
145.164
145.099
146.522
146.474
146.431
146.379
146.328
146.275
146.221
146.165
146.108
146.05
145.992
145.932
145.872
145.81
145.749
145.687
145.624
145.561
145.498
145.435
145.372
145.309
145.247
145.184
145.123
146.457
146.418
146.382
146.336
146.291
146.243
146.193
146.141
146.088
146.033
145.977
145.921
145.863
145.804
145.745
145.686
145.626
145.565
145.505
145.444
145.384
145.324
145.263
145.204
145.145
146.398
146.366
146.335
146.295
146.254
146.21
146.165
146.117
146.067
146.015
145.963
145.909
145.854
145.798
145.741
145.684
145.627
145.569
145.511
145.453
145.395
145.337
145.279
145.222
145.165
146.343
146.317
146.29
146.255
146.219
146.179
146.137
146.092
146.046
145.997
145.948
145.896
145.844
145.791
145.737
145.682
145.627
145.572
145.516
145.46
145.405
145.349
145.294
145.239
145.184
146.294
146.272
146.249
146.218
146.185
146.149
146.11
146.069
146.025
145.98
145.933
145.884
145.835
145.784
145.732
145.68
145.627
145.574
145.521
145.467
145.414
145.36
145.307
145.254
145.202
146.25
146.231
146.211
146.183
146.155
146.121
146.085
146.047
146.006
145.963
145.919
145.873
145.826
145.777
145.728
145.678
145.627
145.576
145.525
145.473
145.422
145.371
145.32
145.269
145.219
146.211
146.194
146.177
146.153
146.126
146.096
146.063
146.027
145.989
145.948
145.906
145.862
145.817
145.771
145.724
145.676
145.627
145.578
145.529
145.479
145.43
145.38
145.332
145.283
145.235
146.176
146.162
146.147
146.125
146.101
146.073
146.043
146.009
145.973
145.935
145.895
145.853
145.81
145.765
145.72
145.674
145.627
145.58
145.532
145.485
145.437
145.39
145.343
145.296
145.249
146.146
146.134
146.121
146.1
146.079
146.053
146.025
145.993
145.959
145.923
145.884
145.844
145.803
145.76
145.716
145.672
145.627
145.582
145.536
145.49
145.444
145.399
145.353
145.308
145.264
146.12
146.109
146.097
146.079
146.06
146.035
146.009
145.979
145.947
145.912
145.875
145.837
145.797
145.756
145.714
145.671
145.627
145.583
145.539
145.495
145.451
145.407
145.363
145.319
145.276
146.097
146.087
146.077
146.06
146.042
146.019
145.995
145.966
145.935
145.902
145.867
145.83
145.791
145.751
145.711
145.669
145.627
145.585
145.542
145.499
145.457
145.414
145.372
145.329
145.288
146.078
146.069
146.06
146.044
146.027
146.005
145.982
145.955
145.925
145.893
145.859
145.823
145.786
145.748
145.708
145.668
145.627
145.586
145.545
145.503
145.462
145.421
145.379
145.339
145.299
146.062
146.054
146.046
146.03
146.014
145.994
145.971
145.945
145.916
145.885
145.852
145.818
145.782
145.744
145.706
145.667
145.627
145.588
145.547
145.507
145.467
145.427
145.387
145.347
145.308
146.05
146.042
146.034
146.019
146.004
145.984
145.962
145.937
145.909
145.879
145.847
145.813
145.778
145.742
145.704
145.666
145.628
145.589
145.55
145.511
145.471
145.432
145.393
145.355
145.317
146.04
146.033
146.026
146.011
145.996
145.976
145.955
145.93
145.903
145.874
145.842
145.809
145.775
145.74
145.703
145.666
145.629
145.591
145.552
145.514
145.476
145.437
145.4
145.362
145.325
146.035
146.027
146.021
146.005
145.991
145.971
145.95
145.925
145.899
145.87
145.839
145.807
145.773
145.738
145.703
145.666
145.63
145.592
145.555
145.517
145.48
145.442
145.405
145.369
145.333
146.033
146.025
146.018
146.002
145.987
145.967
145.946
145.921
145.895
145.867
145.836
145.805
145.772
145.737
145.702
145.667
145.631
145.594
145.557
145.52
145.483
145.447
145.41
145.375
145.339
146.035
146.025
146.018
146.001
145.985
145.965
145.942
145.918
145.892
145.864
145.834
145.802
145.77
145.736
145.702
145.667
145.631
145.595
145.559
145.523
145.486
145.45
145.414
145.379
145.344
146.038
146.027
146.02
146.001
145.983
145.963
145.94
145.915
145.888
145.86
145.831
145.8
145.768
145.735
145.701
145.666
145.631
145.596
145.56
145.524
145.488
145.452
145.417
145.382
145.348
146.047
146.032
146.026
146.005
145.984
145.961
145.937
145.912
145.885
145.857
145.828
145.797
145.765
145.733
145.699
145.665
145.631
145.595
145.56
145.524
145.489
145.454
145.419
145.384
145.35
146.086
146.052
146.035
146.01
145.985
145.96
145.935
145.909
145.882
145.854
145.825
145.795
145.763
145.731
145.698
145.664
145.63
145.595
145.56
145.524
145.489
145.454
145.419
145.385
145.35
146.162
146.083
146.042
146.012
145.985
145.96
145.934
145.908
145.881
145.853
145.824
145.793
145.762
145.73
145.697
145.663
145.629
145.594
145.559
145.524
145.489
145.454
145.419
145.385
145.35
147.584
147.589
147.598
147.608
147.617
147.626
147.635
147.643
147.65
147.656
147.662
147.669
147.677
147.685
147.694
147.702
147.709
147.717
147.727
147.737
147.745
147.748
147.749
147.748
147.749
147.57
147.576
147.587
147.599
147.61
147.622
147.634
147.644
147.65
147.655
147.662
147.67
147.677
147.685
147.693
147.702
147.711
147.72
147.729
147.736
147.742
147.747
147.75
147.75
147.75
147.551
147.555
147.562
147.569
147.581
147.6
147.621
147.637
147.647
147.652
147.656
147.66
147.662
147.666
147.672
147.682
147.694
147.71
147.726
147.739
147.747
147.752
147.754
147.753
147.753
147.532
147.528
147.525
147.525
147.539
147.562
147.589
147.61
147.62
147.619
147.611
147.599
147.59
147.586
147.59
147.602
147.622
147.65
147.682
147.713
147.737
147.752
147.757
147.757
147.755
147.524
147.513
147.503
147.501
147.508
147.527
147.549
147.561
147.558
147.543
147.519
147.493
147.469
147.451
147.444
147.454
147.477
147.516
147.569
147.628
147.684
147.728
147.752
147.759
147.756
147.531
147.516
147.502
147.496
147.498
147.508
147.515
147.51
147.49
147.458
147.418
147.375
147.333
147.299
147.28
147.283
147.308
147.354
147.418
147.498
147.585
147.667
147.731
147.76
147.76
147.548
147.532
147.515
147.506
147.504
147.506
147.502
147.483
147.446
147.397
147.339
147.278
147.218
147.167
147.136
147.132
147.154
147.203
147.273
147.362
147.464
147.572
147.674
147.746
147.762
147.568
147.553
147.535
147.524
147.522
147.523
147.514
147.485
147.437
147.376
147.305
147.228
147.149
147.081
147.038
147.027
147.044
147.091
147.163
147.254
147.359
147.474
147.591
147.693
147.741
147.582
147.57
147.551
147.539
147.54
147.546
147.54
147.513
147.464
147.399
147.32
147.233
147.142
147.06
147.005
146.985
146.995
147.036
147.107
147.197
147.302
147.415
147.531
147.636
147.699
147.586
147.576
147.557
147.544
147.548
147.564
147.573
147.558
147.517
147.453
147.373
147.282
147.184
147.093
147.025
146.996
147.003
147.041
147.111
147.203
147.307
147.418
147.53
147.63
147.687
147.576
147.569
147.549
147.537
147.547
147.573
147.598
147.605
147.582
147.531
147.458
147.369
147.273
147.179
147.103
147.059
147.058
147.096
147.167
147.262
147.369
147.48
147.587
147.676
147.734
147.546
147.544
147.526
147.515
147.53
147.568
147.608
147.635
147.639
147.613
147.557
147.479
147.389
147.299
147.223
147.177
147.171
147.206
147.276
147.37
147.478
147.589
147.694
147.776
147.838
147.491
147.495
147.48
147.467
147.482
147.528
147.585
147.629
147.653
147.652
147.625
147.574
147.506
147.431
147.364
147.322
147.313
147.344
147.412
147.506
147.617
147.731
147.835
147.92
147.977
147.416
147.427
147.412
147.394
147.401
147.448
147.518
147.58
147.624
147.645
147.641
147.614
147.57
147.52
147.476
147.449
147.448
147.478
147.545
147.642
147.757
147.876
147.985
148.07
148.117
147.34
147.354
147.338
147.315
147.316
147.36
147.431
147.505
147.562
147.598
147.611
147.605
147.584
147.556
147.532
147.522
147.537
147.575
147.647
147.751
147.873
148
148.117
148.208
148.255
147.281
147.293
147.272
147.244
147.241
147.279
147.344
147.421
147.488
147.537
147.564
147.573
147.568
147.557
147.548
147.553
147.578
147.626
147.706
147.815
147.945
148.08
148.207
148.306
148.358
147.25
147.255
147.222
147.183
147.175
147.202
147.261
147.338
147.411
147.468
147.506
147.527
147.535
147.537
147.541
147.556
147.587
147.641
147.723
147.833
147.964
148.106
148.24
148.346
148.4
147.256
147.251
147.196
147.139
147.12
147.135
147.188
147.262
147.334
147.394
147.437
147.466
147.484
147.496
147.51
147.532
147.57
147.627
147.706
147.809
147.935
148.074
148.211
148.323
148.381
147.284
147.278
147.195
147.118
147.088
147.091
147.13
147.19
147.253
147.308
147.353
147.386
147.41
147.43
147.45
147.478
147.52
147.581
147.658
147.753
147.866
147.992
148.12
148.229
148.287
147.351
147.349
147.223
147.116
147.066
147.05
147.067
147.109
147.159
147.207
147.247
147.28
147.306
147.329
147.353
147.385
147.429
147.49
147.566
147.655
147.755
147.865
147.976
148.072
148.123
147.445
147.4
147.254
147.098
147.003
146.963
146.974
147.013
147.059
147.101
147.134
147.161
147.181
147.2
147.222
147.252
147.295
147.354
147.428
147.512
147.6
147.69
147.778
147.857
147.901
147.576
147.429
147.248
147.083
146.966
146.901
146.888
146.907
146.935
146.961
146.981
146.995
147.007
147.018
147.034
147.059
147.096
147.148
147.213
147.289
147.364
147.436
147.503
147.564
147.602
147.402
147.315
147.163
147.004
146.88
146.805
146.775
146.774
146.782
146.79
146.793
146.791
146.787
146.784
146.786
146.798
146.821
146.856
146.903
146.957
147.012
147.059
147.098
147.137
147.161
147.262
147.182
147.036
146.881
146.758
146.677
146.633
146.611
146.596
146.581
146.561
146.536
146.51
146.484
146.462
146.449
146.444
146.449
146.46
146.476
146.491
146.495
146.491
146.496
146.51
147.087
147.01
146.876
146.731
146.611
146.524
146.464
146.418
146.378
146.334
146.286
146.232
146.175
146.117
146.06
146.005
145.954
145.905
145.855
145.798
145.735
145.657
145.565
145.489
145.428
146.914
146.833
146.707
146.572
146.452
146.353
146.273
146.2
146.128
146.052
145.969
145.878
145.781
145.678
145.57
145.457
145.338
145.207
145.056
144.881
144.676
144.437
144.17
143.925
143.801
146.741
146.66
146.541
146.413
146.288
146.172
146.065
145.96
145.852
145.736
145.611
145.475
145.326
145.165
144.99
144.797
144.582
144.333
144.037
143.676
143.236
142.7
142.054
141.345
140.627
146.578
146.498
146.387
146.26
146.123
145.984
145.844
145.7
145.55
145.389
145.215
145.024
144.814
144.58
144.318
144.02
143.676
143.265
142.76
142.128
141.318
140.289
138.959
137.416
135.698
146.426
146.347
146.243
146.113
145.958
145.788
145.61
145.424
145.227
145.015
144.785
144.531
144.248
143.927
143.558
143.128
142.617
141.992
141.205
140.182
138.805
136.948
134.237
130.611
124.241
146.286
146.21
146.115
145.973
145.79
145.584
145.364
145.131
144.884
144.618
144.327
144.003
143.636
143.214
142.722
142.134
141.419
140.527
139.372
137.833
135.655
132.607
127.604
121.434
102.516
146.164
146.094
145.995
145.828
145.612
145.367
145.104
144.826
144.528
144.205
143.849
143.449
142.992
142.461
141.83
141.066
140.119
138.915
137.328
135.163
131.941
127.145
117.562
101.387
43.0347
146.076
146.003
145.873
145.67
145.419
145.138
144.835
144.512
144.165
143.785
143.363
142.886
142.335
141.688
140.912
139.963
138.774
137.246
135.214
132.424
128.302
122.092
111.261
93.6117
63.9299
146.02
145.914
145.738
145.498
145.214
144.9
144.562
144.198
143.804
143.37
142.884
142.329
141.684
140.92
140
138.868
137.446
135.616
133.197
129.913
125.295
118.649
109.002
94.6091
77.0807
145.961
145.806
145.586
145.313
145.001
144.66
144.291
143.892
143.455
142.97
142.422
141.793
141.056
140.181
139.124
137.821
136.186
134.093
131.356
127.705
122.747
115.905
106.498
93.3135
76.3797
145.874
145.673
145.416
145.118
144.786
144.425
144.031
143.601
143.126
142.594
141.989
141.289
140.47
139.493
138.311
136.856
135.036
132.718
129.719
125.776
120.526
113.469
104.016
91.3851
75.3912
145.744
145.509
145.233
144.922
144.579
144.202
143.788
143.331
142.822
142.248
141.592
140.832
139.939
138.874
137.585
136.002
134.027
131.526
128.313
124.131
118.636
111.377
101.85
89.4749
74.077
145.582
145.335
145.053
144.736
144.384
143.995
143.564
143.084
142.546
141.937
141.239
140.429
139.476
138.34
136.966
135.282
133.187
130.544
127.163
122.788
117.071
109.561
99.7601
87.0574
71.3634
145.419
145.169
144.885
144.564
144.204
143.805
143.359
142.861
142.301
141.665
140.935
140.088
139.09
137.903
136.469
134.715
132.537
129.797
126.296
121.772
115.856
108.06
97.837
84.3111
67.539
145.266
145.014
144.727
144.402
144.037
143.63
143.175
142.665
142.09
141.436
140.685
139.813
138.789
137.572
136.106
134.317
132.099
129.311
125.739
121.115
114.987
106.865
95.9873
81.1236
62.5378
145.119
144.866
144.577
144.251
143.884
143.473
143.013
142.497
141.914
141.251
140.49
139.609
138.576
137.352
135.884
134.099
131.892
129.121
125.56
120.916
114.593
106.079
93.7176
76.6
53.4428
144.979
144.726
144.438
144.111
143.745
143.334
142.875
142.358
141.774
141.111
140.352
139.474
138.451
137.244
135.805
134.065
131.929
129.26
125.843
121.378
115.201
106.668
92.751
72.9689
36.2146
144.848
144.596
144.309
143.986
143.623
143.216
142.759
142.247
141.67
141.015
140.267
139.408
138.41
137.242
135.86
134.206
132.195
129.714
126.588
122.56
117.137
109.718
97.6991
80.0659
31.2784
144.728
144.478
144.195
143.876
143.518
143.117
142.668
142.165
141.6
140.96
140.234
139.403
138.446
137.335
136.034
134.494
132.652
130.418
127.669
124.232
119.832
114.142
106.373
96.8779
77.8974
144.62
144.373
144.095
143.781
143.43
143.038
142.6
142.111
141.562
140.944
140.246
139.454
138.549
137.508
136.303
134.898
133.246
131.287
128.942
126.109
122.661
118.452
113.29
107.202
99.6752
144.526
144.283
144.009
143.703
143.36
142.979
142.555
142.082
141.554
140.963
140.3
139.552
138.706
137.744
136.644
135.382
133.926
132.239
130.278
127.998
125.356
122.341
119.007
115.626
112.757
144.445
144.206
143.938
143.64
143.308
142.939
142.531
142.077
141.573
141.013
140.388
139.689
138.906
138.026
137.034
135.914
134.647
133.213
131.594
129.776
127.763
125.59
123.357
121.291
119.763
144.377
144.143
143.882
143.593
143.272
142.917
142.526
142.094
141.616
141.088
140.504
139.856
139.138
138.34
137.453
136.468
135.375
134.165
132.835
131.393
129.857
128.281
126.764
125.475
124.64
144.323
144.094
143.841
143.561
143.252
142.912
142.539
142.129
141.679
141.185
140.642
140.046
139.391
138.673
137.885
137.024
136.085
135.068
133.98
132.83
131.651
130.488
129.422
128.563
128.042
144.282
144.058
143.813
143.543
143.246
142.922
142.568
142.181
141.759
141.299
140.797
140.251
139.658
139.014
138.317
137.567
136.763
135.91
135.015