/*--------------------------------*- C++ -*----------------------------------*\
  =========                 |
  \\      /  F ield         | OpenFOAM: The Open Source CFD Toolbox
   \\    /   O peration     | Website:  https://openfoam.org
    \\  /    A nd           | Version:  13
     \\/     M anipulation  |
\*---------------------------------------------------------------------------*/
FoamFile
{
    format      ascii;
    class       volScalarField;
    location    "13";
    object      p;
}
// * * * * * * * * * * * * * * * * * * * * * * * * * * * * * * * * * * * * * //

dimensions      [0 2 -2 0 0 0 0];

internalField   nonuniform List<scalar> 
6440
(
0.00115103
0.00115125
0.00115173
0.00115244
0.00115339
0.00115454
0.00115584
0.00115722
0.0011586
0.00115991
0.00116108
0.00116203
0.00116268
0.00116298
0.00116289
0.00116241
0.00116153
0.00116026
0.00115867
0.00115685
0.00115487
0.00115281
0.00115076
0.00114882
0.00114719
0.00114979
0.00114999
0.00115042
0.00115108
0.00115195
0.00115301
0.00115423
0.00115553
0.00115687
0.00115817
0.00115937
0.00116039
0.00116115
0.00116158
0.00116162
0.00116122
0.00116035
0.00115902
0.00115727
0.00115512
0.00115266
0.00114994
0.00114709
0.00114424
0.0011417
0.00114786
0.00114808
0.00114852
0.00114919
0.00115007
0.00115115
0.00115239
0.00115375
0.00115517
0.00115657
0.00115789
0.00115904
0.00115992
0.00116046
0.00116057
0.00116018
0.00115927
0.00115782
0.00115581
0.00115324
0.00115018
0.0011467
0.00114298
0.00113925
0.00113598
0.00114539
0.00114565
0.00114613
0.00114687
0.00114783
0.00114899
0.00115032
0.0011518
0.00115336
0.00115492
0.00115641
0.00115773
0.00115878
0.00115946
0.00115968
0.00115936
0.00115845
0.00115689
0.0011546
0.0011516
0.00114795
0.00114372
0.00113912
0.00113454
0.00113061
0.00114239
0.00114269
0.00114324
0.00114405
0.00114512
0.0011464
0.00114786
0.00114948
0.0011512
0.00115294
0.00115462
0.00115615
0.0011574
0.00115829
0.00115868
0.0011585
0.00115764
0.00115603
0.00115354
0.00115021
0.00114604
0.00114112
0.0011357
0.00113028
0.00112565
0.00113884
0.00113918
0.00113979
0.0011407
0.00114188
0.00114329
0.00114491
0.00114668
0.00114856
0.00115049
0.00115238
0.00115412
0.00115562
0.00115674
0.00115737
0.00115739
0.00115667
0.0011551
0.00115253
0.00114897
0.00114439
0.00113887
0.00113268
0.0011264
0.00112105
0.00113472
0.0011351
0.00113579
0.00113679
0.0011381
0.00113966
0.00114144
0.00114337
0.00114543
0.00114754
0.00114962
0.0011516
0.00115334
0.00115473
0.00115564
0.00115591
0.00115541
0.00115397
0.00115145
0.00114778
0.0011429
0.00113685
0.0011299
0.00112278
0.00111671
0.00113005
0.00113047
0.00113122
0.00113234
0.00113377
0.0011355
0.00113745
0.00113957
0.0011418
0.00114408
0.00114636
0.00114855
0.00115053
0.00115219
0.00115339
0.00115397
0.00115375
0.00115254
0.00115019
0.00114652
0.00114146
0.00113497
0.00112733
0.00111937
0.00111257
0.00112482
0.00112528
0.00112611
0.00112733
0.00112891
0.00113081
0.00113295
0.00113526
0.00113768
0.00114015
0.00114262
0.001145
0.0011472
0.00114911
0.00115059
0.00115148
0.00115159
0.0011507
0.0011486
0.00114507
0.00113995
0.00113315
0.00112488
0.00111608
0.00110854
0.00111906
0.00111956
0.00112046
0.00112178
0.0011235
0.00112556
0.00112788
0.00113039
0.00113303
0.00113573
0.00113841
0.00114098
0.00114335
0.00114548
0.0011472
0.00114839
0.00114884
0.00114832
0.00114657
0.00114334
0.0011383
0.00113131
0.00112251
0.0011129
0.00110454
0.00111281
0.00111333
0.00111428
0.0011157
0.00111753
0.00111974
0.00112225
0.00112497
0.00112785
0.00113078
0.0011337
0.00113647
0.00113903
0.00114133
0.00114325
0.00114468
0.00114545
0.00114531
0.00114397
0.00114112
0.0011364
0.00112936
0.0011201
0.00110967
0.00110047
0.00110608
0.00110662
0.00110762
0.0011091
0.00111103
0.00111336
0.00111603
0.00111896
0.00112207
0.00112526
0.00112842
0.00113144
0.00113421
0.00113667
0.00113876
0.00114037
0.0011414
0.00114161
0.00114071
0.00113834
0.00113404
0.0011272
0.00111761
0.00110639
0.00109629
0.00109895
0.0010995
0.00110051
0.00110202
0.00110401
0.00110642
0.0011092
0.00111229
0.00111561
0.00111906
0.00112251
0.00112581
0.00112881
0.00113146
0.0011337
0.00113546
0.00113667
0.00113718
0.00113671
0.00113487
0.00113109
0.00112472
0.00111498
0.00110304
0.001092
0.00109149
0.00109202
0.00109302
0.00109451
0.00109648
0.00109891
0.00110173
0.00110489
0.00110836
0.00111203
0.00111578
0.00111938
0.00112268
0.00112557
0.00112799
0.00112992
0.0011313
0.00113204
0.00113194
0.00113064
0.00112751
0.0011217
0.00111221
0.0010996
0.00108751
0.00108377
0.00108427
0.00108523
0.00108665
0.00108853
0.00109086
0.00109361
0.00109677
0.00110026
0.00110403
0.00110796
0.00111179
0.00111541
0.00111867
0.00112146
0.00112369
0.00112532
0.0011263
0.00112654
0.0011257
0.0011232
0.00111812
0.00110913
0.00109596
0.00108269
0.00107592
0.00107637
0.00107724
0.00107855
0.00108028
0.00108244
0.00108501
0.00108797
0.00109129
0.0010949
0.00109872
0.00110264
0.00110651
0.00111018
0.00111351
0.00111633
0.00111851
0.00111993
0.00112052
0.00112012
0.00111827
0.00111398
0.00110565
0.00109243
0.001078
0.00106803
0.00106843
0.00106918
0.00107032
0.00107183
0.00107371
0.00107595
0.00107853
0.00108144
0.00108464
0.00108803
0.00109157
0.00109538
0.00109937
0.00110328
0.00110687
0.00110992
0.00111225
0.00111367
0.00111397
0.00111281
0.00110943
0.00110204
0.00108937
0.00107405
0.00106025
0.00106059
0.0010612
0.0010621
0.0010633
0.00106477
0.00106653
0.00106856
0.00107084
0.00107332
0.00107597
0.00107899
0.00108234
0.00108593
0.00108981
0.00109391
0.00109785
0.00110138
0.00110422
0.00110604
0.00110637
0.00110434
0.00109851
0.00108775
0.00107258
0.00105273
0.00105299
0.00105342
0.00105404
0.00105484
0.00105583
0.001057
0.00105833
0.00105978
0.00106132
0.00106309
0.00106518
0.0010676
0.00107039
0.00107355
0.00107708
0.00108107
0.0010853
0.00108952
0.00109346
0.00109668
0.00109844
0.0010974
0.00109212
0.00107954
0.00104558
0.00104575
0.00104597
0.00104629
0.00104671
0.0010472
0.00104776
0.00104836
0.00104898
0.00104968
0.00105054
0.0010516
0.00105289
0.00105447
0.00105638
0.00105873
0.00106165
0.0010653
0.00106966
0.0010747
0.00108062
0.00108755
0.0010952
0.00110313
0.0011041
0.00103888
0.00103895
0.00103906
0.00103921
0.0010394
0.00103961
0.00103983
0.00104004
0.00104027
0.00104054
0.00104091
0.00104139
0.00104202
0.00104284
0.00104395
0.00104543
0.00104737
0.00104993
0.0010534
0.00105814
0.00106451
0.00107342
0.00108623
0.00110909
0.00115715
0.00103241
0.00103246
0.00103254
0.00103265
0.00103279
0.00103296
0.00103313
0.00103331
0.00103351
0.00103376
0.00103409
0.00103451
0.00103508
0.00103585
0.00103689
0.0010383
0.00104022
0.0010428
0.00104637
0.00105129
0.00105808
0.00106786
0.00108287
0.00110735
0.00114743
0.0010262
0.00102624
0.00102631
0.00102642
0.00102656
0.00102672
0.00102691
0.00102711
0.00102735
0.00102763
0.00102799
0.00102845
0.00102904
0.00102984
0.00103091
0.00103236
0.0010343
0.00103692
0.00104048
0.00104534
0.00105199
0.00106125
0.0010744
0.00109288
0.00111627
0.00102025
0.00102029
0.00102036
0.00102047
0.00102061
0.00102078
0.00102097
0.00102119
0.00102145
0.00102175
0.00102212
0.00102259
0.00102319
0.00102398
0.00102502
0.00102641
0.00102826
0.00103072
0.001034
0.00103836
0.00104412
0.00105172
0.00106155
0.00107354
0.0010859
0.00101456
0.00101461
0.00101468
0.00101478
0.00101491
0.00101508
0.00101527
0.00101549
0.00101574
0.00101603
0.00101638
0.00101681
0.00101736
0.00101808
0.00101901
0.00102024
0.00102185
0.00102396
0.00102669
0.00103021
0.00103465
0.00104012
0.00104654
0.00105331
0.00105891
0.00100914
0.00100919
0.00100925
0.00100935
0.00100947
0.00100962
0.00100979
0.00100999
0.00101021
0.00101047
0.00101076
0.00101113
0.00101158
0.00101216
0.00101291
0.00101389
0.00101515
0.00101677
0.00101881
0.00102131
0.0010243
0.00102769
0.00103119
0.00103417
0.00103552
0.00100399
0.00100403
0.00100409
0.00100417
0.00100428
0.00100441
0.00100455
0.00100471
0.00100488
0.00100508
0.0010053
0.00100555
0.00100587
0.00100628
0.00100679
0.00100746
0.00100831
0.00100936
0.00101064
0.00101212
0.00101373
0.00101529
0.00101649
0.00101677
0.00101536
0.0009991
0.00099914
0.000999188
0.000999253
0.000999336
0.000999433
0.000999539
0.000999649
0.00099976
0.000999873
0.000999991
0.00100012
0.00100028
0.00100047
0.00100072
0.00100105
0.00100145
0.00100192
0.00100245
0.00100297
0.00100336
0.00100343
0.00100287
0.00100125
0.000998032
0.000994471
0.000994505
0.000994541
0.000994587
0.000994642
0.000994702
0.00099476
0.00099481
0.000994846
0.000994866
0.000994868
0.000994856
0.000994833
0.000994804
0.000994773
0.00099474
0.000994696
0.000994616
0.000994451
0.00099412
0.000993493
0.000992379
0.000990516
0.00098757
0.000983158
0.0009901
0.000990127
0.00099015
0.000990173
0.000990195
0.000990213
0.000990217
0.000990199
0.000990152
0.00099007
0.000989949
0.000989784
0.000989574
0.000989315
0.000989004
0.000988626
0.000988161
0.000987569
0.000986792
0.00098574
0.000984286
0.000982258
0.000979442
0.000975583
0.000970405
0.000985985
0.000986005
0.000986011
0.000986009
0.000985997
0.000985968
0.000985913
0.000985823
0.000985689
0.0009855
0.00098525
0.00098493
0.000984534
0.000984051
0.00098347
0.00098277
0.00098192
0.000980878
0.000979577
0.000977931
0.000975822
0.000973106
0.000969609
0.000965135
0.000959485
0.000982123
0.000982134
0.000982124
0.000982095
0.000982045
0.000981968
0.000981852
0.000981688
0.000981464
0.000981168
0.00098079
0.000980319
0.000979742
0.000979048
0.000978216
0.000977224
0.000976036
0.000974605
0.000972869
0.000970746
0.000968134
0.000964912
0.00096094
0.000956071
0.000950158
0.000978512
0.000978514
0.000978485
0.000978429
0.000978341
0.000978214
0.000978038
0.000977799
0.000977485
0.000977084
0.000976583
0.000975967
0.000975223
0.000974333
0.000973277
0.000972027
0.000970548
0.000968793
0.000966705
0.000964209
0.000961219
0.000957635
0.000953348
0.000948244
0.000942216
0.000975147
0.00097514
0.000975094
0.000975009
0.000974884
0.000974708
0.000974471
0.000974159
0.00097376
0.000973258
0.00097264
0.000971891
0.000970993
0.000969929
0.000968675
0.000967204
0.000965481
0.000963463
0.000961097
0.000958318
0.000955054
0.000951224
0.000946742
0.000941522
0.000935485
0.000972026
0.00097201
0.000971946
0.000971834
0.000971671
0.000971448
0.000971152
0.000970771
0.000970291
0.000969696
0.000968971
0.0009681
0.000967065
0.000965848
0.000964425
0.00096277
0.000960849
0.000958622
0.000956043
0.000953057
0.000949605
0.00094562
0.000941036
0.000935788
0.000929817
0.000969145
0.00096912
0.000969038
0.0009689
0.000968701
0.000968433
0.000968082
0.000967636
0.000967081
0.0009664
0.000965579
0.0009646
0.000963447
0.0009621
0.000960536
0.00095873
0.000956652
0.000954265
0.000951531
0.000948402
0.00094483
0.000940762
0.000936147
0.000930935
0.000925084
0.000966498
0.000966464
0.000966366
0.000966204
0.000965972
0.000965661
0.000965259
0.000964754
0.00096413
0.000963373
0.000962467
0.000961395
0.000960141
0.000958685
0.000957007
0.000955083
0.000952885
0.000950382
0.000947541
0.000944322
0.000940686
0.000936591
0.000931998
0.00092687
0.000921176
0.000964082
0.00096404
0.000963926
0.000963741
0.000963478
0.000963128
0.00096268
0.000962121
0.000961437
0.000960612
0.000959633
0.000958483
0.000957145
0.000955602
0.000953835
0.000951821
0.000949536
0.000946955
0.000944047
0.000940782
0.000937127
0.000933049
0.000928519
0.00092351
0.000918
0.00096189
0.00096184
0.000961713
0.000961506
0.000961215
0.00096083
0.000960341
0.000959735
0.000958998
0.000958116
0.000957075
0.00095586
0.000954456
0.000952845
0.00095101
0.000948933
0.000946591
0.000943963
0.000941023
0.000937747
0.000934108
0.000930082
0.000925646
0.00092078
0.000915471
0.000959916
0.000959859
0.000959719
0.000959494
0.000959178
0.000958762
0.000958237
0.00095759
0.000956808
0.000955878
0.000954787
0.000953521
0.000952065
0.000950404
0.000948523
0.000946405
0.000944031
0.000941382
0.000938439
0.000935181
0.000931587
0.000927639
0.000923319
0.000918615
0.000913518
0.000958153
0.000958091
0.00095794
0.000957698
0.00095736
0.000956918
0.000956361
0.000955679
0.00095486
0.000953892
0.000952761
0.000951456
0.000949963
0.000948269
0.000946359
0.000944219
0.000941835
0.000939189
0.000936265
0.000933048
0.000929521
0.000925671
0.000921485
0.000916955
0.000912075
0.000956596
0.000956528
0.000956368
0.000956112
0.000955755
0.00095529
0.000954707
0.000953997
0.000953148
0.000952149
0.000950989
0.000949656
0.000948139
0.000946425
0.000944503
0.000942359
0.000939982
0.000937357
0.000934472
0.000931315
0.000927872
0.000924135
0.000920094
0.000915745
0.000911086
0.000955235
0.000955163
0.000954994
0.000954727
0.000954354
0.000953871
0.000953267
0.000952534
0.000951662
0.000950641
0.00094946
0.00094811
0.00094658
0.000944859
0.000942938
0.000940805
0.00093845
0.000935862
0.000933031
0.000929948
0.000926603
0.000922989
0.000919101
0.000914938
0.000910499
0.000954063
0.000953988
0.000953813
0.000953535
0.00095315
0.000952652
0.000952032
0.000951282
0.000950393
0.000949357
0.000948164
0.000946806
0.000945273
0.000943556
0.000941648
0.000939537
0.000937217
0.000934679
0.000931914
0.000928915
0.000925677
0.000922195
0.000918466
0.000914489
0.000910269
0.000953073
0.000952994
0.000952814
0.000952529
0.000952134
0.000951624
0.000950992
0.00095023
0.000949331
0.000948286
0.000947089
0.000945731
0.000944204
0.000942501
0.000940614
0.000938537
0.000936262
0.000933783
0.000931093
0.000928188
0.000925064
0.000921718
0.000918149
0.00091436
0.000910353
0.000952255
0.000952175
0.000951991
0.0009517
0.000951298
0.00095078
0.000950139
0.00094937
0.000948465
0.000947418
0.000946223
0.000944871
0.000943358
0.000941677
0.000939821
0.000937785
0.000935563
0.000933151
0.000930544
0.000927739
0.000924733
0.000921526
0.000918118
0.000914513
0.000910716
0.000951602
0.00095152
0.000951333
0.000951038
0.000950631
0.000950108
0.000949463
0.000948691
0.000947785
0.000946741
0.000945553
0.000944215
0.000942722
0.000941069
0.00093925
0.000937262
0.0009351
0.000932761
0.000930242
0.00092754
0.000924656
0.000921589
0.000918341
0.000914918
0.000911323
0.000951104
0.000951021
0.000950833
0.000950535
0.000950126
0.0009496
0.000948954
0.000948182
0.000947281
0.000946244
0.000945068
0.000943749
0.000942281
0.000940661
0.000938886
0.000936951
0.000934854
0.000932592
0.000930164
0.000927568
0.000924806
0.000921879
0.00091879
0.000915543
0.000912145
0.000950753
0.000950669
0.000950481
0.000950182
0.000949772
0.000949247
0.000948602
0.000947834
0.00094694
0.000945915
0.000944755
0.000943459
0.000942021
0.000940439
0.000938711
0.000936833
0.000934804
0.000932623
0.000930288
0.000927801
0.000925161
0.000922372
0.000919438
0.000916363
0.000913155
0.000950541
0.000950457
0.000950268
0.00094997
0.000949561
0.000949038
0.000948398
0.000947637
0.000946752
0.000945742
0.000944603
0.000943332
0.000941928
0.000940388
0.00093871
0.000936893
0.000934935
0.000932836
0.000930596
0.000928216
0.000925698
0.000923045
0.000920262
0.000917354
0.000914328
0.000950457
0.000950373
0.000950186
0.00094989
0.000949484
0.000948965
0.00094833
0.000947579
0.000946707
0.000945715
0.000944599
0.000943357
0.00094199
0.000940494
0.000938869
0.000937114
0.000935228
0.000933213
0.000931067
0.000928794
0.000926396
0.000923877
0.00092124
0.000918493
0.000915642
0.000950495
0.000950412
0.000950226
0.000949932
0.00094953
0.000949017
0.000948391
0.000947651
0.000946795
0.000945822
0.000944731
0.000943522
0.000942193
0.000940743
0.000939173
0.000937482
0.000935669
0.000933737
0.000931686
0.000929518
0.000927237
0.000924847
0.000922353
0.00091976
0.000917076
0.000950645
0.000950562
0.000950379
0.000950089
0.000949692
0.000949186
0.00094857
0.000947843
0.000947004
0.000946053
0.00094499
0.000943814
0.000942525
0.000941123
0.000939609
0.000937981
0.000936242
0.000934393
0.000932435
0.000930371
0.000928204
0.00092594
0.000923582
0.000921137
0.000918613
0.000950899
0.000950817
0.000950637
0.000950351
0.00094996
0.000949463
0.000948858
0.000948145
0.000947325
0.000946398
0.000945363
0.000944222
0.000942975
0.000941622
0.000940163
0.0009386
0.000936934
0.000935166
0.0009333
0.000931337
0.000929281
0.000927138
0.000924911
0.000922608
0.000920236
0.000951249
0.000951169
0.000950991
0.000950711
0.000950327
0.000949839
0.000949246
0.000948549
0.000947749
0.000946846
0.000945842
0.000944736
0.000943531
0.000942226
0.000940824
0.000939325
0.000937731
0.000936044
0.000934266
0.000932401
0.000930453
0.000928426
0.000926326
0.000924159
0.000921931
0.000951686
0.000951608
0.000951434
0.000951159
0.000950783
0.000950305
0.000949726
0.000949046
0.000948266
0.000947389
0.000946415
0.000945346
0.000944183
0.000942927
0.000941581
0.000940145
0.000938621
0.000937013
0.000935322
0.000933552
0.000931707
0.000929793
0.000927813
0.000925774
0.000923684
0.000952205
0.000952129
0.000951958
0.000951689
0.000951321
0.000950854
0.000950289
0.000949626
0.000948868
0.000948017
0.000947074
0.000946041
0.00094492
0.000943713
0.000942422
0.000941048
0.000939594
0.000938061
0.000936455
0.000934777
0.000933032
0.000931224
0.000929359
0.000927443
0.000925483
0.000952796
0.000952722
0.000952556
0.000952293
0.000951934
0.000951478
0.000950927
0.000950282
0.000949546
0.000948721
0.000947809
0.000946812
0.000945734
0.000944575
0.000943337
0.000942024
0.000940637
0.000939179
0.000937654
0.000936064
0.000934414
0.000932709
0.000930954
0.000929154
0.000927317
0.000953453
0.000953381
0.000953219
0.000952963
0.000952613
0.000952169
0.000951633
0.000951006
0.000950292
0.000949493
0.000948612
0.000947652
0.000946615
0.000945503
0.000944318
0.000943064
0.000941742
0.000940356
0.000938909
0.000937404
0.000935845
0.000934238
0.000932587
0.000930898
0.000929177
0.00095417
0.000954099
0.000953942
0.000953693
0.000953352
0.00095292
0.000952399
0.000951791
0.000951099
0.000950326
0.000949476
0.000948551
0.000947554
0.000946488
0.000945356
0.000944159
0.0009429
0.000941583
0.000940211
0.000938787
0.000937315
0.000935801
0.000934249
0.000932664
0.000931054
0.000954938
0.00095487
0.000954718
0.000954475
0.000954143
0.000953724
0.000953218
0.000952628
0.000951958
0.000951212
0.000950392
0.000949502
0.000948545
0.000947524
0.000946441
0.0009453
0.000944102
0.000942851
0.000941551
0.000940205
0.000938816
0.00093739
0.000935932
0.000934446
0.000932939
0.000955753
0.000955687
0.000955539
0.000955304
0.000954982
0.000954574
0.000954083
0.000953512
0.000952864
0.000952143
0.000951353
0.000950498
0.000949579
0.000948602
0.000947568
0.000946479
0.00094534
0.000944153
0.000942921
0.000941649
0.000940339
0.000938997
0.000937628
0.000936235
0.000934825
0.000956607
0.000956544
0.000956401
0.000956173
0.00095586
0.000955464
0.000954989
0.000954436
0.00095381
0.000953114
0.000952353
0.000951531
0.00095065
0.000949715
0.000948727
0.00094769
0.000946607
0.000945481
0.000944315
0.000943113
0.000941878
0.000940616
0.00093933
0.000938025
0.000936707
0.000957496
0.000957435
0.000957297
0.000957076
0.000956773
0.000956389
0.000955928
0.000955393
0.000954788
0.000954118
0.000953385
0.000952595
0.000951751
0.000950856
0.000949913
0.000948926
0.000947896
0.000946828
0.000945725
0.000944589
0.000943426
0.000942239
0.000941032
0.00093981
0.000938578
0.000958413
0.000958355
0.000958222
0.000958008
0.000957714
0.000957343
0.000956897
0.000956379
0.000955795
0.000955148
0.000954443
0.000953685
0.000952876
0.00095202
0.00095112
0.00095018
0.000949202
0.000948189
0.000947145
0.000946073
0.000944977
0.00094386
0.000942728
0.000941584
0.000940434
0.000959354
0.000959299
0.00095917
0.000958963
0.000958679
0.00095832
0.000957888
0.000957388
0.000956824
0.0009562
0.000955522
0.000954794
0.000954019
0.0009532
0.000952342
0.000951447
0.000950517
0.000949557
0.00094857
0.000947558
0.000946525
0.000945476
0.000944413
0.000943343
0.000942268
0.000960313
0.000960261
0.000960137
0.000959938
0.000959663
0.000959315
0.000958897
0.000958414
0.00095787
0.000957269
0.000956617
0.000955917
0.000955174
0.000954392
0.000953573
0.000952721
0.000951838
0.000950928
0.000949993
0.000949038
0.000948066
0.000947079
0.000946083
0.000945082
0.000944078
0.000961286
0.000961237
0.000961118
0.000960926
0.00096066
0.000960324
0.00095992
0.000959453
0.000958928
0.000958349
0.000957721
0.00095705
0.000956338
0.00095559
0.000954809
0.000953997
0.000953158
0.000952296
0.000951412
0.00095051
0.000949594
0.000948668
0.000947734
0.000946796
0.00094586
0.000962269
0.000962222
0.000962109
0.000961923
0.000961667
0.000961342
0.000960951
0.0009605
0.000959993
0.000959435
0.000958832
0.000958187
0.000957505
0.00095679
0.000956044
0.000955271
0.000954475
0.000953657
0.000952821
0.00095197
0.000951107
0.000950236
0.00094936
0.000948483
0.000947609
0.000963257
0.000963213
0.000963105
0.000962927
0.000962679
0.000962364
0.000961987
0.000961552
0.000961062
0.000960525
0.000959944
0.000959325
0.000958671
0.000957987
0.000957275
0.000956539
0.000955782
0.000955006
0.000954215
0.000953412
0.000952599
0.000951781
0.000950959
0.000950139
0.000949323
0.000964246
0.000964205
0.000964103
0.000963931
0.000963692
0.000963388
0.000963024
0.000962603
0.000962131
0.000961613
0.000961054
0.000960459
0.000959832
0.000959177
0.000958498
0.000957797
0.000957077
0.000956341
0.000955592
0.000954834
0.000954068
0.000953299
0.000952529
0.000951761
0.000951
0.000965232
0.000965196
0.000965098
0.000964933
0.000964703
0.00096441
0.000964058
0.000963651
0.000963196
0.000962696
0.000962158
0.000961586
0.000960985
0.000960358
0.000959709
0.00095904
0.000958356
0.000957657
0.000956949
0.000956232
0.00095551
0.000954787
0.000954065
0.000953347
0.000952636
0.000966213
0.00096618
0.000966088
0.00096593
0.000965709
0.000965426
0.000965085
0.000964693
0.000964253
0.000963771
0.000963252
0.000962702
0.000962125
0.000961525
0.000960904
0.000960267
0.000959615
0.000958952
0.000958281
0.000957603
0.000956923
0.000956243
0.000955565
0.000954893
0.00095423
0.000967185
0.000967156
0.000967069
0.000966919
0.000966705
0.000966432
0.000966104
0.000965724
0.000965299
0.000964834
0.000964334
0.000963805
0.000963251
0.000962675
0.000962081
0.000961473
0.000960852
0.000960222
0.000959585
0.000958945
0.000958303
0.000957663
0.000957027
0.000956398
0.000955779
0.000968144
0.00096812
0.000968039
0.000967896
0.000967691
0.000967427
0.00096711
0.000966743
0.000966332
0.000965883
0.000965401
0.000964891
0.000964358
0.000963806
0.000963237
0.000962656
0.000962064
0.000961465
0.000960861
0.000960255
0.000959649
0.000959046
0.000958449
0.00095786
0.000957282
0.000969089
0.000969069
0.000968995
0.000968859
0.000968662
0.000968408
0.000968101
0.000967747
0.000967349
0.000966915
0.00096645
0.000965958
0.000965445
0.000964914
0.000964369
0.000963813
0.000963248
0.000962678
0.000962104
0.00096153
0.000960957
0.000960389
0.000959828
0.000959276
0.000958737
0.000970017
0.000970002
0.000969935
0.000969806
0.000969617
0.000969373
0.000969076
0.000968733
0.000968348
0.000967928
0.000967478
0.000967003
0.000966509
0.000965998
0.000965475
0.000964942
0.000964402
0.000963858
0.000963313
0.000962768
0.000962226
0.000961691
0.000961163
0.000960646
0.000960142
0.000970925
0.000970916
0.000970855
0.000970734
0.000970554
0.000970318
0.000970032
0.000969699
0.000969326
0.000968919
0.000968484
0.000968025
0.000967547
0.000967055
0.000966552
0.00096604
0.000965524
0.000965004
0.000964485
0.000963967
0.000963455
0.000962949
0.000962452
0.000961967
0.000961496
0.000971812
0.000971809
0.000971756
0.000971642
0.00097147
0.000971244
0.000970967
0.000970644
0.000970283
0.000969887
0.000969465
0.00096902
0.000968558
0.000968083
0.000967598
0.000967106
0.000966611
0.000966114
0.000965618
0.000965126
0.00096464
0.000964162
0.000963694
0.000963238
0.000962797
0.000972676
0.00097268
0.000972635
0.000972529
0.000972366
0.000972148
0.000971879
0.000971567
0.000971215
0.000970831
0.00097042
0.000969988
0.00096954
0.00096908
0.000968612
0.000968138
0.000967662
0.000967185
0.000966712
0.000966242
0.00096578
0.000965327
0.000964886
0.000964458
0.000964045
0.000973515
0.000973527
0.000973491
0.000973394
0.000973239
0.000973029
0.000972769
0.000972465
0.000972122
0.000971748
0.000971347
0.000970927
0.000970492
0.000970045
0.000969591
0.000969134
0.000968675
0.000968217
0.000967763
0.000967315
0.000966875
0.000966445
0.000966027
0.000965624
0.000965237
0.000974328
0.000974349
0.000974324
0.000974236
0.000974089
0.000973887
0.000973635
0.000973338
0.000973003
0.000972637
0.000972246
0.000971835
0.00097141
0.000970976
0.000970535
0.000970091
0.000969647
0.000969206
0.00096877
0.000968341
0.000967921
0.000967512
0.000967117
0.000966737
0.000966373
0.000975115
0.000975147
0.000975132
0.000975054
0.000974915
0.000974721
0.000974476
0.000974186
0.000973858
0.000973498
0.000973114
0.000972711
0.000972295
0.00097187
0.000971441
0.000971009
0.000970579
0.000970152
0.000969732
0.000969319
0.000968918
0.000968528
0.000968153
0.000967794
0.000967452
0.000975875
0.00097592
0.000975917
0.000975849
0.000975719
0.000975532
0.000975292
0.000975008
0.000974684
0.00097433
0.000973951
0.000973554
0.000973145
0.000972728
0.000972307
0.000971886
0.000971467
0.000971053
0.000970646
0.000970249
0.000969864
0.000969491
0.000969134
0.000968794
0.000968473
0.000976609
0.000976668
0.00097668
0.000976622
0.0009765
0.000976319
0.000976085
0.000975804
0.000975483
0.000975131
0.000974756
0.000974363
0.000973958
0.000973547
0.000973133
0.000972719
0.00097231
0.000971907
0.000971512
0.000971128
0.000970757
0.0009704
0.00097006
0.000969737
0.000969433
0.000977318
0.000977394
0.000977422
0.000977376
0.000977262
0.000977086
0.000976854
0.000976574
0.000976254
0.000975902
0.000975527
0.000975135
0.000974733
0.000974325
0.000973916
0.000973508
0.000973106
0.000972712
0.000972327
0.000971955
0.000971596
0.000971253
0.000970927
0.00097062
0.000970333
0.000978003
0.0009781
0.000978146
0.000978112
0.000978005
0.000977832
0.000977601
0.000977319
0.000976996
0.000976642
0.000976265
0.000975871
0.000975468
0.000975061
0.000974654
0.000974251
0.000973855
0.000973467
0.000973091
0.000972728
0.00097238
0.000972049
0.000971736
0.000971443
0.000971171
0.000978668
0.000978789
0.000978857
0.000978835
0.000978734
0.000978561
0.000978327
0.00097804
0.000977711
0.00097735
0.000976967
0.000976568
0.000976162
0.000975754
0.000975347
0.000974946
0.000974553
0.00097417
0.0009738
0.000973446
0.000973107
0.000972786
0.000972485
0.000972205
0.000971946
0.000979317
0.000979469
0.000979561
0.000979552
0.000979453
0.000979277
0.000979034
0.000978737
0.000978397
0.000978025
0.000977632
0.000977226
0.000976813
0.000976401
0.000975992
0.00097559
0.000975199
0.000974819
0.000974455
0.000974106
0.000973775
0.000973464
0.000973173
0.000972903
0.000972656
0.000979958
0.000980148
0.000980269
0.00098027
0.00098017
0.000979984
0.000979726
0.000979411
0.000979054
0.000978666
0.000978259
0.00097784
0.000977419
0.000976999
0.000976586
0.000976182
0.00097579
0.000975413
0.000975052
0.000974708
0.000974384
0.00097408
0.000973798
0.000973538
0.000973302
0.000980605
0.000980841
0.000980993
0.000981001
0.000980891
0.000980685
0.000980404
0.000980064
0.000979681
0.000979271
0.000978844
0.00097841
0.000977976
0.000977547
0.000977127
0.000976719
0.000976326
0.000975949
0.00097559
0.00097525
0.000974931
0.000974634
0.000974359
0.000974108
0.000973881
0.000981277
0.000981569
0.000981755
0.000981761
0.000981627
0.000981388
0.000981069
0.000980692
0.000980276
0.000979837
0.000979385
0.000978931
0.000978481
0.00097804
0.000977612
0.000977199
0.000976803
0.000976425
0.000976068
0.000975731
0.000975416
0.000975124
0.000974855
0.000974612
0.000974393
0.000982008
0.000982366
0.000982581
0.000982568
0.000982389
0.000982096
0.000981722
0.000981295
0.000980835
0.000980358
0.000979876
0.000979398
0.00097893
0.000978475
0.000978038
0.000977618
0.000977219
0.00097684
0.000976483
0.000976148
0.000975837
0.000975549
0.000975287
0.000975049
0.000974838
0.000982862
0.000983285
0.000983514
0.000983447
0.000983188
0.000982811
0.000982359
0.000981865
0.000981349
0.000980827
0.000980311
0.000979806
0.000979318
0.000978849
0.000978401
0.000977975
0.000977572
0.000977191
0.000976835
0.000976502
0.000976193
0.00097591
0.000975652
0.00097542
0.000975215
0.000983952
0.000984413
0.000984608
0.000984426
0.000984032
0.000983529
0.000982971
0.000982391
0.000981808
0.000981236
0.000980681
0.000980148
0.000979639
0.000979156
0.000978698
0.000978266
0.000977859
0.000977478
0.000977121
0.00097679
0.000976484
0.000976204
0.00097595
0.000975723
0.000975523
0.000985485
0.000985881
0.000985934
0.000985531
0.000984919
0.000984237
0.000983539
0.000982855
0.000982196
0.000981569
0.000980976
0.000980416
0.000979888
0.000979393
0.000978927
0.00097849
0.000978081
0.000977698
0.000977343
0.000977013
0.00097671
0.000976433
0.000976183
0.000975959
0.000975764
0.000987815
0.000987885
0.000987566
0.000986766
0.000985825
0.000984898
0.000984031
0.000983229
0.000982492
0.000981812
0.000981183
0.000980601
0.000980059
0.000979554
0.000979083
0.000978644
0.000978234
0.000977852
0.000977498
0.00097717
0.00097687
0.000976596
0.000976349
0.000976129
0.000975937
0.000991853
0.000990829
0.000989556
0.000988065
0.000986661
0.000985438
0.000984384
0.000983468
0.000982661
0.000981941
0.000981288
0.000980692
0.000980143
0.000979635
0.000979164
0.000978725
0.000978317
0.000977937
0.000977586
0.000977261
0.000976964
0.000976693
0.000976448
0.000976231
0.000976042
0.00100081
0.000995616
0.000991839
0.000989222
0.000987246
0.000985713
0.0009845
0.000983507
0.000982664
0.000981929
0.000981273
0.000980678
0.000980133
0.00097963
0.000979164
0.00097873
0.000978327
0.000977952
0.000977605
0.000977285
0.00097699
0.000976722
0.000976481
0.000976266
0.000976079
0.00101888
0.00100209
0.000993928
0.000989984
0.000987473
0.000985707
0.000984405
0.000983387
0.000982546
0.000981821
0.000981179
0.000980597
0.000980064
0.000979572
0.000979114
0.000978688
0.000978291
0.000977922
0.000977579
0.000977263
0.000976972
0.000976707
0.000976468
0.000976255
0.000976069
-0.116941
-0.113289
-0.107146
-0.0990527
-0.0897349
-0.0797288
-0.0691997
-0.0588195
-0.0495695
-0.041554
-0.0347116
-0.0286058
-0.0231992
-0.0185235
-0.0146201
-0.0114216
-0.00888343
-0.00689578
-0.0053704
-0.00422883
-0.0033886
-0.00277775
-0.00234028
-0.00202303
-0.0018014
-0.104795
-0.099281
-0.0906395