/*--------------------------------*- C++ -*----------------------------------*\
  =========                 |
  \\      /  F ield         | OpenFOAM: The Open Source CFD Toolbox
   \\    /   O peration     | Website:  https://openfoam.org
    \\  /    A nd           | Version:  13
     \\/     M anipulation  |
\*---------------------------------------------------------------------------*/
FoamFile
{
    format      ascii;
    class       surfaceScalarField;
    location    "13";
    object      phi;
}
// * * * * * * * * * * * * * * * * * * * * * * * * * * * * * * * * * * * * * //

dimensions      [0 3 -1 0 0 0 0];

internalField   nonuniform List<scalar> 
12590
(
-8.12241e-13
8.12245e-13
-1.76982e-12
9.57584e-13
-2.61851e-12
8.48701e-13
-3.46135e-12
8.42842e-13
-4.31537e-12
8.54027e-13
-5.04094e-12
7.25574e-13
-5.61357e-12
5.72642e-13
-6.03286e-12
4.19295e-13
-6.26223e-12
2.29375e-13
-6.26987e-12
7.64214e-15
-6.03169e-12
-2.38172e-13
-5.53703e-12
-4.94657e-13
-4.79273e-12
-7.44292e-13
-3.8285e-12
-9.64228e-13
-2.70684e-12
-1.12165e-12
-1.51611e-12
-1.19073e-12
-3.07457e-13
-1.20865e-12
8.70949e-13
-1.1784e-12
1.94957e-12
-1.07862e-12
2.84661e-12
-8.97032e-13
3.49561e-12
-6.48996e-13
3.81553e-12
-3.19915e-13
3.60451e-12
2.1103e-13
2.30004e-12
1.30448e-12
2.30004e-12
-6.67388e-13
1.47964e-12
-1.48502e-12
1.77522e-12
-2.26933e-12
1.63303e-12
-3.07377e-12
1.64729e-12
-3.88251e-12
1.66278e-12
-4.67034e-12
1.51341e-12
-5.29042e-12
1.19273e-12
-5.78869e-12
9.17574e-13
-6.13479e-12
5.75477e-13
-6.30226e-12
1.75125e-13
-6.27606e-12
-2.64367e-13
-6.05455e-12
-7.16164e-13
-5.65268e-12
-1.14615e-12
-5.09913e-12
-1.51778e-12
-4.42334e-12
-1.79744e-12
-3.64441e-12
-1.96965e-12
-2.80936e-12
-2.04369e-12
-1.96686e-12
-2.0209e-12
-1.19373e-12
-1.85175e-12
-5.51632e-13
-1.53913e-12
-6.8764e-14
-1.13186e-12
2.05771e-13
-5.94444e-13
3.9665e-13
2.01573e-14
4.37883e-13
1.26325e-12
2.73792e-12
-6.58934e-13
2.13859e-12
-1.48188e-12
2.59818e-12
-2.34764e-12
2.4988e-12
-3.27619e-12
2.57585e-12
-4.23779e-12
2.62439e-12
-5.23199e-12
2.50762e-12
-6.1045e-12
2.06525e-12
-6.87743e-12
1.69051e-12
-7.50983e-12
1.20788e-12
-7.97292e-12
6.38225e-13
-8.2329e-12
-4.38562e-15
-8.26174e-12
-6.8731e-13
-8.03994e-12
-1.36795e-12
-7.56011e-12
-1.9976e-12
-6.83224e-12
-2.5253e-12
-5.89553e-12
-2.90636e-12
-4.82222e-12
-3.117e-12
-3.69893e-12
-3.14418e-12
-2.61783e-12
-2.93284e-12
-1.63686e-12
-2.52009e-12
-8.28713e-13
-1.94e-12
-2.34691e-13
-1.18846e-12
9.64289e-14
-3.10953e-13
2.39602e-13
1.12009e-12
2.97753e-12
-7.0808e-13
2.84668e-12
-1.57702e-12
3.46713e-12
-2.54888e-12
3.47068e-12
-3.61628e-12
3.64327e-12
-4.72791e-12
3.73602e-12
-5.85647e-12
3.63619e-12
-7.03977e-12
3.24857e-12
-7.99189e-12
2.64264e-12
-8.81589e-12
2.03189e-12
-9.46292e-12
1.28526e-12
-9.89242e-12
4.25125e-13
-1.00698e-11
-5.09916e-13
-9.96947e-12
-1.46828e-12
-9.5826e-12
-2.38446e-12
-8.92372e-12
-3.18418e-12
-8.02754e-12
-3.80252e-12
-6.94364e-12
-4.20089e-12
-5.70494e-12
-4.38288e-12
-4.35592e-12
-4.28185e-12
-3.02568e-12
-3.85033e-12
-1.80915e-12
-3.15652e-12
-7.96658e-13
-2.20094e-12
-1.52786e-13
-9.54818e-13
1.50337e-13
8.1697e-13
3.12786e-12
-7.76335e-13
3.62302e-12
-1.72158e-12
4.41239e-12
-2.82294e-12
4.57205e-12
-4.04603e-12
4.86637e-12
-5.32237e-12
5.01238e-12
-6.61238e-12
4.92621e-12
-7.92278e-12
4.55899e-12
-9.06975e-12
3.78962e-12
-1.00681e-11
3.03022e-12
-1.08702e-11
2.0874e-12
-1.14535e-11
1.00839e-12
-1.17803e-11
-1.8308e-13
-1.18238e-11
-1.42472e-12
-1.15653e-11
-2.64298e-12
-1.09983e-11
-3.75124e-12
-1.013e-11
-4.67076e-12
-8.97892e-12
-5.35199e-12
-7.5708e-12
-5.79099e-12
-5.97488e-12
-5.87777e-12
-4.30315e-12
-5.52205e-12
-2.7049e-12
-4.75477e-12
-1.31981e-12
-3.58602e-12
-4.40154e-13
-1.83447e-12
6.67692e-14
3.10054e-13
3.19463e-12
-8.48157e-13
4.4712e-12
-1.89177e-12
5.45602e-12
-3.13962e-12
5.81992e-12
-4.52445e-12
6.25121e-12
-5.96182e-12
6.44977e-12
-7.39301e-12
6.35741e-12
-8.79105e-12
5.95705e-12
-1.01517e-11
5.15029e-12
-1.13099e-11
4.18843e-12
-1.227e-11
3.04746e-12
-1.3003e-11
1.74147e-12
-1.34824e-11
2.9626e-13
-1.3669e-11
-1.23809e-12
-1.35343e-11
-2.77767e-12
-1.30567e-11
-4.22881e-12
-1.22182e-11
-5.50931e-12
-1.10184e-11
-6.55178e-12
-9.48334e-12
-7.32601e-12
-7.6533e-12
-7.7078e-12
-5.66376e-12
-7.51158e-12
-3.71112e-12
-6.70741e-12
-1.9973e-12
-5.29984e-12
-6.92423e-13
-3.13934e-12
3.42194e-14
-4.16581e-13
3.22885e-12
-9.20237e-13
5.39145e-12
-2.08182e-12
6.61762e-12
-3.49441e-12
7.23254e-12
-5.06047e-12
7.81728e-12
-6.6693e-12
8.05862e-12
-8.24857e-12
7.9367e-12
-9.74043e-12
7.44891e-12
-1.11665e-11
6.57639e-12
-1.24224e-11
5.44436e-12
-1.35551e-11
4.18015e-12
-1.44362e-11
2.62254e-12
-1.5061e-11
9.21103e-13
-1.53938e-11
-9.05296e-13
-1.53891e-11
-2.78233e-12
-1.50063e-11
-4.61163e-12
-1.42193e-11
-6.29626e-12
-1.3009e-11
-7.76213e-12
-1.13919e-11
-8.94309e-12
-9.36942e-12
-9.73029e-12
-7.07814e-12
-9.80287e-12
-4.74294e-12
-9.0426e-12
-2.62511e-12
-7.41766e-12
-1.00232e-12
-4.76212e-12
2.08956e-14
-1.43979e-12
3.24975e-12
-9.92283e-13
6.38375e-12
-2.28996e-12
7.91532e-12
-3.88425e-12
8.82685e-12
-5.63591e-12
9.56897e-12
-7.41615e-12
9.83887e-12
-9.12033e-12
9.64091e-12
-1.07245e-11
9.05308e-12
-1.22255e-11
8.07741e-12
-1.35897e-11
6.80858e-12
-1.47448e-11
5.33525e-12
-1.57141e-11
3.59183e-12
-1.6419e-11
1.62608e-12
-1.68466e-11
-4.77738e-13
-1.69454e-11
-2.68349e-12
-1.66535e-11
-4.90358e-12
-1.59252e-11
-7.02453e-12
-1.47335e-11
-8.95382e-12
-1.30787e-11
-1.05979e-11
-1.09629e-11
-1.18461e-11
-8.41726e-12
-1.23485e-11
-5.69004e-12
-1.17698e-11
-3.14031e-12
-9.96738e-12
-1.13793e-12
-6.7645e-12
2.10692e-14
-2.59878e-12
3.27082e-12
-1.0638e-12
7.44758e-12
-2.50662e-12
9.35816e-12
-4.28128e-12
1.06015e-11
-6.21515e-12
1.15029e-11
-8.14375e-12
1.17675e-11
-9.984e-12
1.14812e-11
-1.16894e-11
1.07585e-11
-1.32471e-11
9.63516e-12
-1.46298e-11
8.19128e-12
-1.57574e-11
6.46284e-12
-1.66208e-11
4.45527e-12
-1.72513e-11
2.25649e-12
-1.76918e-11
-3.71483e-14
-1.78547e-11
-2.52059e-12
-1.76638e-11
-5.09452e-12
-1.70394e-11
-7.64891e-12
-1.59308e-11
-1.00624e-11
-1.43327e-11
-1.2196e-11
-1.22564e-11
-1.39224e-11
-9.56195e-12
-1.5043e-11
-6.52643e-12
-1.48053e-11
-3.56901e-12
-1.29248e-11
-1.14897e-12
-9.18453e-12
-7.00746e-16
-3.74705e-12
3.27012e-12
-1.12232e-12
8.56992e-12
-2.6902e-12
1.09261e-11
-4.61183e-12
1.25232e-11
-6.67401e-12
1.35651e-11
-8.66389e-12
1.37574e-11
-1.06e-11
1.34173e-11
-1.23882e-11
1.25467e-11
-1.39694e-11
1.12164e-11
-1.52716e-11
9.49354e-12
-1.62692e-11
7.46041e-12
-1.70137e-11
5.19977e-12
-1.75213e-11
2.76413e-12
-1.77704e-11
2.1196e-13
-1.78584e-11
-2.43261e-12
-1.77106e-11
-5.24237e-12
-1.72192e-11
-8.1403e-12
-1.62833e-11
-1.09983e-11
-1.48394e-11
-1.36399e-11
-1.28844e-11
-1.58774e-11
-1.04734e-11
-1.74539e-11
-7.29032e-12
-1.79885e-11
-4.00609e-12
-1.6209e-11
-1.30554e-12
-1.18851e-11
4.07308e-13
-5.45989e-12
3.67743e-12
-1.15261e-12
9.72256e-12
-2.78911e-12
1.25626e-11
-4.76809e-12
1.45022e-11
-6.83419e-12
1.56312e-11
-8.8395e-12
1.57627e-11
-1.0779e-11
1.53568e-11
-1.25472e-11
1.4315e-11
-1.40363e-11
1.27055e-11
-1.52126e-11
1.06698e-11
-1.6058e-11
8.30588e-12
-1.66073e-11
5.74899e-12
-1.68859e-11
3.04277e-12
-1.68933e-11
2.19318e-13
-1.67294e-11
-2.59645e-12
-1.64777e-11
-5.49407e-12
-1.60836e-11
-8.53443e-12
-1.54004e-11
-1.16815e-11
-1.42785e-11
-1.47619e-11
-1.26175e-11
-1.75384e-11
-1.03871e-11
-1.96843e-11
-7.646e-12
-2.07296e-11
-4.2479e-12
-1.96071e-11
-1.28624e-12
-1.48468e-11
5.84753e-13
-7.3309e-12
4.26218e-12
-1.1436e-12
1.08662e-11
-2.77255e-12
1.41916e-11
-4.70714e-12
1.64369e-11
-6.68399e-12
1.76081e-11
-8.61907e-12
1.76979e-11
-1.04003e-11
1.7138e-11
-1.19639e-11
1.58787e-11
-1.32421e-11
1.39837e-11
-1.41643e-11
1.1592e-11
-1.47369e-11
8.87854e-12
-1.49287e-11
5.94084e-12
-1.48039e-11
2.91797e-12
-1.45268e-11
-5.78521e-14
-1.41224e-11
-3.00088e-12
-1.36756e-11
-5.94087e-12
-1.32486e-11
-8.96145e-12
-1.28491e-11
-1.2081e-11
-1.2257e-11
-1.53539e-11
-1.12344e-11
-1.8561e-11
-9.61368e-12
-2.13051e-11
-7.39435e-12
-2.29489e-11
-4.29789e-12
-2.27036e-11
-1.25589e-12
-1.78888e-11
7.2246e-13
-9.30925e-12
4.98463e-12
-1.07227e-12
1.19385e-11
-2.57364e-12
1.5693e-11
-4.29268e-12
1.81559e-11
-6.03617e-12
1.93516e-11
-7.66942e-12
1.93311e-11
-9.10933e-12
1.8578e-11
-1.02872e-11
1.70566e-11
-1.11693e-11
1.48658e-11
-1.17166e-11
1.21393e-11
-1.18741e-11
9.03602e-12
-1.16546e-11
5.7214e-12
-1.1156e-11
2.41936e-12
-1.04878e-11
-7.26111e-13
-9.7668e-12
-3.72185e-12
-9.14737e-12
-6.56032e-12
-8.6976e-12
-9.41123e-12
-8.42567e-12
-1.23529e-11
-8.30659e-12
-1.5473e-11
-8.16584e-12
-1.87018e-11
-7.57558e-12
-2.18954e-11
-6.20184e-12
-2.43227e-11
-4.16188e-12
-2.47436e-11
-1.2486e-12
-2.08021e-11
7.31619e-13
-1.12895e-11
5.71624e-12
-9.24804e-13
1.28634e-11
-2.14941e-12
1.69177e-11
-3.43942e-12
1.9446e-11
-4.66065e-12
2.05729e-11
-5.751e-12
2.04215e-11
-6.51148e-12
1.93385e-11
-7.01908e-12
1.75642e-11
-7.29993e-12
1.51467e-11
-7.34135e-12
1.21807e-11
-7.00544e-12
8.70012e-12
-6.11692e-12
4.83288e-12
-5.08279e-12
1.38522e-12
-3.96184e-12
-1.84708e-12
-2.85642e-12
-4.82728e-12
-1.89069e-12
-7.52607e-12
-1.36685e-12
-9.9351e-12
-1.49548e-12
-1.22243e-11
-2.09499e-12
-1.48736e-11
-2.88231e-12
-1.79145e-11
-3.64521e-12
-2.11325e-11
-3.79837e-12
-2.41695e-11
-2.81173e-12
-2.57303e-11
-9.13519e-13
-2.27003e-11
7.43331e-13
-1.29464e-11
6.45956e-12
-7.03522e-13
1.35669e-11
-1.50232e-12
1.77165e-11
-2.16033e-12
2.01041e-11
-2.53954e-12
2.09522e-11
-2.68507e-12
2.05671e-11
-2.58645e-12
1.92399e-11
-2.16164e-12
1.71394e-11
-1.44122e-12
1.44263e-11
-4.81501e-13
1.1221e-11
6.40631e-13
7.578e-12
2.45553e-12
3.01798e-12
4.38675e-12
-5.45996e-13
6.2621e-12
-3.72245e-12
7.90851e-12
-6.47371e-12
9.1866e-12
-8.80419e-12
9.90477e-12
-1.06533e-11
9.86271e-12
-1.21823e-11
8.57136e-12
-1.35822e-11
6.13327e-12
-1.54765e-11
3.25767e-12
-1.82569e-11
9.30627e-13
-2.18425e-11
-7.16231e-14
-2.47281e-11
1.02476e-13
-2.28745e-11
1.68568e-12
-1.45297e-11
8.14521e-12
-4.1654e-13
1.39835e-11
-6.59617e-13
1.79597e-11
-5.20109e-13
1.99646e-11
9.81678e-14
2.0334e-11
1.17475e-12
1.94906e-11
2.68322e-12
1.77315e-11
4.6235e-12
1.51992e-11
6.88601e-12
1.21638e-11
9.38472e-12
8.72235e-12
1.20618e-11
4.90092e-12
1.4617e-11
4.62821e-13
1.74269e-11
-3.3559e-12
1.99305e-11
-6.22601e-12
2.21099e-11
-8.6532e-12
2.38211e-11
-1.05153e-11
2.4774e-11
-1.16063e-11
2.48084e-11
-1.22167e-11
2.36485e-11
-1.24223e-11
2.08838e-11
-1.27119e-11
1.63127e-11
-1.36859e-11
1.05383e-11
-1.60682e-11
5.81674e-12
-2.00066e-11
3.13521e-12
-2.0193e-11
3.15638e-12
-1.45509e-11
1.13016e-11
-7.41883e-14
1.40578e-11
3.58999e-13
1.75265e-11
1.44166e-12
1.8882e-11
3.20112e-12
1.85745e-11
5.55107e-12
1.71407e-11
8.62933e-12
1.46533e-11
1.23708e-11
1.14578e-11
1.66998e-11
7.83481e-12
2.12452e-11
4.17706e-12
2.58202e-11
3.25925e-13
3.01505e-11
-3.86747e-12
3.40258e-11
-7.23112e-12
3.75591e-11
-9.7593e-12
4.08327e-11
-1.19268e-11
4.34761e-11
-1.31588e-11
4.47986e-11
-1.29287e-11
4.46564e-11
-1.20745e-11
4.28523e-11
-1.06183e-11
3.92274e-11
-9.08706e-12
3.3568e-11
-8.02654e-12
2.5706e-11
-8.20619e-12
1.66353e-11
-1.09358e-11
9.15956e-12
-1.27174e-11
7.14279e-12
-1.25342e-11
1.84443e-11
4.11146e-13
1.36466e-11
1.6247e-12
1.63129e-11
3.78494e-12
1.67217e-11
6.97648e-12
1.5383e-11
1.13243e-11
1.27929e-11
1.6585e-11
9.39263e-12
2.26154e-11
5.42746e-12
2.91761e-11
1.27416e-12
3.60786e-11
-2.72531e-12
4.29794e-11
-6.57482e-12
4.94943e-11
-1.03824e-11
5.54514e-11
-1.31881e-11
6.08342e-11
-1.51421e-11
6.52392e-11
-1.63317e-11
6.87329e-11
-1.66525e-11
7.25218e-11
-1.67175e-11
7.37054e-11
-1.32581e-11
7.18867e-11
-8.79955e-12
6.7124e-11
-4.32436e-12
5.91879e-11
-9.04769e-14
4.8847e-11
2.13468e-12
3.49017e-11
3.00952e-12
1.91368e-11
3.04734e-12
1.08441e-11
-4.24153e-12
2.92884e-11
9.04885e-13
1.27417e-11
2.9777e-12
1.42401e-11
6.54012e-12
1.31593e-11
1.15555e-11
1.03676e-11
1.78297e-11
6.51873e-12
2.53078e-11
1.91469e-12
3.38417e-11
-3.10636e-12
4.31501e-11
-8.03417e-12
5.28397e-11
-1.24148e-11
6.32351e-11
-1.69701e-11
7.34326e-11
-2.05797e-11
8.32057e-11
-2.29612e-11
9.20845e-11
-2.40209e-11
9.95258e-11
-2.37729e-11
1.0522e-10
-2.23462e-11
1.08457e-10
-1.99551e-11
1.117e-10
-1.65008e-11
1.1343e-10
-1.05295e-11
1.09623e-10
-5.17208e-13
9.85742e-11
1.09581e-11
8.01423e-11
2.05666e-11
5.10521e-11
3.20997e-11
1.81892e-11
3.59101e-11
-5.07624e-12
1.90238e-11
2.42121e-11
1.35881e-12
1.13828e-11
4.48714e-12
1.11117e-11
9.53751e-12
8.10889e-12
1.63663e-11
3.53882e-12
2.48234e-11
-1.93837e-12
3.47868e-11
-8.04855e-12
4.60424e-11
-1.43618e-11
5.82042e-11
-2.01959e-11
7.16318e-11
-2.58422e-11
8.57718e-11
-3.111e-11
1.0022e-10
-3.50281e-11
1.14692e-10
-3.74327e-11
1.2883e-10
-3.81586e-11
1.41891e-10
-3.6834e-11
1.53498e-10
-3.39537e-11
1.62581e-10
-2.90376e-11
1.67773e-10
-2.16926e-11
1.69384e-10
-1.21408e-11
1.6937e-10
-5.03002e-13
1.64436e-10
1.58925e-11
1.466e-10
3.84023e-11
1.09889e-10
6.88109e-11
5.10858e-11
9.47133e-11
-3.53275e-11
1.05437e-10
-1.11154e-11
1.72123e-12
9.66152e-12
5.74697e-12
7.08588e-12
1.17513e-11
2.1045e-12
1.948e-11
-4.18985e-12
2.87137e-11
-1.11721e-11
3.92527e-11
-1.85875e-11
5.10395e-11
-2.61485e-11
6.42953e-11
-3.34516e-11
7.87002e-11
-4.02469e-11
9.38367e-11
-4.62464e-11
1.09801e-10
-5.09921e-11
1.266e-10
-5.42315e-11
1.44215e-10
-5.57734e-11
1.62877e-10
-5.54957e-11
1.82387e-10
-5.34638e-11
2.02888e-10
-4.95381e-11
2.24703e-10
-4.35078e-11
2.4689e-10
-3.43277e-11
2.69244e-10
-2.2857e-11
2.93308e-10
-8.17197e-12
3.20616e-10
1.10943e-11
3.56072e-10
3.33548e-11
3.95621e-10
5.51644e-11
4.19275e-10
8.17831e-11
1.01569e-10
3.06591e-10
1.92416e-12
7.73726e-12
6.36424e-12
2.64572e-12
1.3058e-11
-4.5893e-12
2.17379e-11
-1.28697e-11
3.21718e-11
-2.1606e-11
4.42278e-11
-3.06433e-11
5.77986e-11
-3.97191e-11
7.28405e-11
-4.84933e-11
8.92144e-11
-5.66206e-11
1.0677e-10
-6.38019e-11
1.25466e-10
-6.96878e-11
1.45336e-10
-7.41014e-11
1.66411e-10
-7.68481e-11
1.8877e-10
-7.78548e-11
2.12413e-10
-7.71069e-11
2.37423e-10
-7.45479e-11
2.64007e-10
-7.00914e-11
2.93047e-10
-6.33681e-11
3.24418e-10
-5.42274e-11
3.5828e-10
-4.20342e-11
3.95826e-10
-2.64516e-11
4.36612e-10
-7.43165e-12
4.774e-10
1.43765e-11
5.1776e-10
4.14228e-11
8.67706e-11
5.32558e-10
2.07612e-12
5.66105e-12
6.89325e-12
-2.17149e-12
1.41957e-11
-1.18918e-11
2.37103e-11
-2.23843e-11
3.52232e-11
-3.31189e-11
4.85561e-11
-4.3976e-11
6.35994e-11
-5.47623e-11
8.02672e-11
-6.5161e-11
9.84813e-11
-7.48345e-11
1.18157e-10
-8.34775e-11
1.39284e-10
-9.08149e-11
1.61842e-10
-9.66587e-11
1.85866e-10
-1.00872e-10
2.11402e-10
-1.03391e-10
2.38503e-10
-1.04207e-10
2.67275e-10
-1.0332e-10
2.97885e-10
-1.00701e-10
3.30701e-10
-9.6184e-11
3.65992e-10
-8.95183e-11
4.03976e-10
-8.00177e-11
4.44323e-10
-6.67985e-11
4.85871e-10
-4.89804e-11
5.23989e-10
-2.37413e-11
5.51331e-10
1.40811e-11
7.76014e-11
5.605e-10
2.19269e-12
3.46826e-12
7.32761e-12
-7.30651e-12
1.51429e-11
-1.97071e-11
2.53626e-11
-3.2604e-11
3.77637e-11
-4.55199e-11
5.2173e-11
-5.83853e-11
6.84695e-11
-7.10587e-11
8.65662e-11
-8.32575e-11
1.06394e-10
-9.46618e-11
1.27894e-10
-1.04978e-10
1.51041e-10
-1.13961e-10
1.75816e-10
-1.21434e-10
2.02226e-10
-1.27282e-10
2.30283e-10
-1.31448e-10
2.6e-10
-1.33924e-10
2.91397e-10
-1.34717e-10
3.24487e-10
-1.33792e-10
3.59305e-10
-1.31002e-10
3.95767e-10
-1.2598e-10
4.33672e-10
-1.17922e-10
4.72173e-10
-1.053e-10
5.09275e-10
-8.60823e-11
5.41233e-10
-5.56996e-11
5.6247e-10
-7.15556e-12
7.19424e-11
5.68129e-10
2.28114e-12
1.18702e-12
7.67335e-12
-1.26988e-11
1.59051e-11
-2.79389e-11
2.66999e-11
-4.33988e-11
3.98321e-11
-5.86521e-11
5.51299e-11
-7.36829e-11
7.24681e-11
-8.83968e-11
9.17566e-11
-1.02546e-10
1.12925e-10
-1.1583e-10
1.3592e-10
-1.27972e-10
1.60699e-10
-1.3874e-10
1.87231e-10
-1.47966e-10
2.15486e-10
-1.55537e-10
2.45426e-10
-1.61387e-10
2.76989e-10
-1.65488e-10
3.10079e-10
-1.67807e-10
3.44546e-10
-1.68258e-10
3.8015e-10
-1.66607e-10
4.16497e-10
-1.62328e-10
4.52954e-10
-1.54379e-10
4.88587e-10
-1.40933e-10
5.21403e-10
-1.18898e-10
5.4935e-10
-8.36468e-11
5.69515e-10
-2.73209e-11
6.03139e-11
5.81144e-10
2.34375e-12
-1.15684e-12
7.93225e-12
-1.82874e-11
1.64879e-11
-3.64946e-11
2.77356e-11
-5.46465e-11
4.14496e-11
-7.2366e-11
5.74582e-11
-8.96914e-11
7.56342e-11
-1.06573e-10
9.58821e-11
-1.22793e-10
1.18126e-10
-1.38074e-10
1.42304e-10
-1.52149e-10
1.6836e-10
-1.64796e-10
1.96238e-10
-1.75844e-10
2.25873e-10
-1.85171e-10
2.57173e-10
-1.92688e-10
2.90009e-10
-1.98323e-10
3.24186e-10
-2.01985e-10
3.59426e-10
-2.03498e-10
3.9533e-10
-2.02511e-10
4.31347e-10
-1.98344e-10
4.66745e-10
-1.89777e-10
5.00585e-10
-1.74774e-10
5.31804e-10
-1.50116e-10
5.59267e-10
-1.1111e-10
5.83138e-10
-5.11916e-11
3.79402e-11
6.05511e-10
2.3822e-12
-3.53916e-12
8.10869e-12
-2.4014e-11
1.69011e-11
-4.52872e-11
2.84869e-11
-6.62323e-11
4.26432e-11
-8.65222e-11
5.91993e-11
-1.06247e-10
7.80251e-11
-1.25398e-10
9.90184e-11
-1.43787e-10
1.22095e-10
-1.61151e-10
1.4718e-10
-1.77235e-10
1.74204e-10
-1.91819e-10
2.03087e-10
-2.04727e-10
2.33733e-10
-2.15817e-10
2.66013e-10
-2.24968e-10
2.99748e-10
-2.32058e-10
3.3469e-10
-2.36926e-10
3.70499e-10
-2.39307e-10
4.0673e-10
-2.38742e-10
4.4283e-10
-2.34443e-10
4.78164e-10
-2.25111e-10
5.12103e-10
-2.08714e-10
5.44242e-10
-1.82255e-10
5.74726e-10
-1.41595e-10
6.05088e-10
-8.15535e-11
3.82669e-12
6.39202e-10
2.39867e-12
-5.93796e-12
8.20914e-12
-2.98246e-11
1.71577e-11
-5.42358e-11
2.89767e-11
-7.80512e-11
4.34484e-11
-1.00994e-10
6.04037e-11
-1.23203e-10
7.97086e-11
-1.44703e-10
1.01254e-10
-1.65331e-10
1.24946e-10
-1.84843e-10
1.50701e-10
-2.02989e-10
1.78433e-10
-2.19552e-10
2.08049e-10
-2.34343e-10
2.39431e-10
-2.47199e-10
2.72431e-10
-2.57967e-10
3.0685e-10
-2.66477e-10
3.42426e-10
-2.72503e-10
3.78827e-10
-2.75708e-10
4.15647e-10
-2.75562e-10
4.52436e-10
-2.71231e-10
4.88765e-10
-2.61439e-10
5.24369e-10
-2.44318e-10
5.59395e-10
-2.17281e-10
5.94794e-10
-1.76994e-10
6.32822e-10
-1.19581e-10
-4.11463e-11
6.77795e-10
2.39565e-12
-8.33376e-12
8.24191e-12
-3.5671e-11
1.72738e-11
-6.32679e-11
2.92319e-11
-9.00094e-11
4.39055e-11
-1.15667e-10
6.11264e-11
-1.40423e-10
8.07571e-11
-1.64333e-10
1.02682e-10
-1.87257e-10
1.26802e-10
-2.08962e-10
1.53024e-10
-2.29211e-10
1.81254e-10
-2.47781e-10
2.11389e-10
-2.64477e-10
2.43305e-10
-2.79115e-10
2.76851e-10
-2.91513e-10
3.11834e-10
-3.0146e-10
3.48016e-10
-3.08685e-10
3.85115e-10
-3.12807e-10
4.22818e-10
-3.13265e-10
4.60826e-10
-3.09239e-10
4.98941e-10
-2.99555e-10
5.3722e-10
-2.82597e-10
5.76202e-10
-2.56263e-10
6.17231e-10
-2.18022e-10
6.62813e-10
-1.65164e-10
-9.53245e-11
7.16992e-10
2.37605e-12
-1.071e-11
8.21613e-12
-4.15113e-11
1.72674e-11
-7.23192e-11
2.92818e-11
-1.02024e-10
4.4056e-11
-1.30442e-10
6.14237e-11
-1.57791e-10
8.12453e-11
-1.84155e-10
1.03402e-10
-2.09413e-10
1.27788e-10
-2.33349e-10
1.54307e-10
-2.5573e-10
1.82861e-10
-2.76335e-10
2.13347e-10
-2.94962e-10
2.45644e-10
-3.11413e-10
2.79613e-10
-3.25482e-10
3.15089e-10
-3.36935e-10
3.51877e-10
-3.45473e-10
3.8977e-10
-3.507e-10
4.28568e-10
-3.52063e-10
4.68133e-10
-3.48804e-10
5.08474e-10
-3.39896e-10
5.49886e-10
-3.24009e-10
5.9314e-10
-2.99516e-10
6.3971e-10
-2.64593e-10
6.92005e-10
-2.17459e-10
-1.56811e-10
7.53491e-10
2.34239e-12
-1.30525e-11
8.14088e-12
-4.73099e-11
1.71567e-11
-8.13352e-11
2.91552e-11
-1.14022e-10
4.39416e-11
-1.45228e-10
6.13523e-11
-1.75202e-10
8.12475e-11
-2.0405e-10
1.03506e-10
-2.31671e-10
1.28021e-10
-2.57864e-10
1.54695e-10
-2.82403e-10
1.8343e-10
-3.05071e-10
2.1413e-10
-3.25661e-10
2.46686e-10
-3.43969e-10
2.80981e-10
-3.59777e-10
3.16886e-10
-3.7284e-10
3.54265e-10
-3.82852e-10
3.92991e-10
-3.89426e-10
4.32976e-10
-3.92048e-10
4.74221e-10
-3.9005e-10
5.16899e-10
-3.82575e-10
5.61464e-10
-3.68574e-10
6.08789e-10
-3.46841e-10
6.60322e-10
-3.16126e-10
7.18203e-10
-2.7534e-10
-2.2389e-10
7.85283e-10
2.29767e-12
-1.53504e-11
8.02478e-12
-5.30372e-11
1.69591e-11
-9.02696e-11
2.88802e-11
-1.25944e-10
4.36023e-11
-1.5995e-10
6.09666e-11
-1.92566e-10
8.08345e-11
-2.23918e-10
1.03085e-10
-2.53922e-10
1.27612e-10
-2.8239e-10
1.54319e-10
-3.09109e-10
1.83115e-10
-3.33866e-10
2.13911e-10
-3.56457e-10
2.4662e-10
-3.76677e-10
2.81149e-10
-3.94307e-10
3.17412e-10
-4.09102e-10
3.55329e-10
-4.2077e-10
3.94852e-10
-4.28948e-10
4.35989e-10
-4.33184e-10
4.78852e-10
-4.32913e-10
5.23726e-10
-4.27449e-10
5.71152e-10
-4.16e-10
6.22024e-10
-3.97713e-10
6.77679e-10
-3.71781e-10
7.39947e-10
-3.37608e-10
-2.95057e-10
8.11114e-10
2.24418e-12
-1.75948e-11
7.87589e-12
-5.86692e-11
1.66906e-11
-9.90844e-11
2.84825e-11
-1.37736e-10
4.30761e-11
-1.74544e-10
6.03179e-11
-2.09807e-10
8.00725e-11
-2.43672e-10
1.02221e-10
-2.7607e-10
1.26659e-10
-3.06828e-10
1.53295e-10
-3.35745e-10
1.82045e-10
-3.62617e-10
2.12834e-10
-3.87246e-10
2.45593e-10
-4.09435e-10
2.80261e-10
-4.28974e-10
3.16788e-10
-4.45629e-10
3.55149e-10
-4.59132e-10
3.95362e-10
-4.69161e-10
4.37509e-10
-4.75331e-10
4.81783e-10
-4.77187e-10
5.28537e-10
-4.74203e-10
5.78345e-10
-4.65808e-10
6.32065e-10
-4.51433e-10
6.90888e-10
-4.30604e-10
7.56348e-10
-4.03068e-10
-3.68969e-10
8.3026e-10
2.18421e-12
-1.97792e-11
7.70165e-12
-6.41869e-11
1.63659e-11
-1.07749e-10
2.79862e-11
-1.49356e-10
4.23973e-11
-1.88955e-10
5.94525e-11
-2.26863e-10
7.90205e-11
-2.6324e-10
1.00986e-10
-2.98035e-10
1.25248e-10
-3.3109e-10
1.51721e-10
-3.62217e-10
1.8033e-10
-3.91226e-10
2.11014e-10
-4.1793e-10
2.43723e-10
-4.42144e-10
2.78422e-10
-4.63673e-10
3.15098e-10
-4.82305e-10
3.5377e-10
-4.97804e-10
3.94505e-10
-5.09896e-10
4.37442e-10
-5.18268e-10
4.82824e-10
-5.22569e-10
5.31034e-10
-5.22414e-10
5.82643e-10
-5.17416e-10
6.3844e-10
-5.0723e-10
6.99462e-10
-4.91625e-10
7.66976e-10
-4.70582e-10
-4.44413e-10
8.4242e-10
2.11974e-12
-2.18992e-11
7.50878e-12
-6.95761e-11
1.59984e-11
-1.16239e-10
2.74124e-11
-1.6077e-10
4.15966e-11
-2.03139e-10
5.84114e-11
-2.43677e-10
7.77305e-11
-2.82559e-10
9.94426e-11
-3.19747e-10
1.23452e-10
-3.551e-10
1.4968e-10
-3.88444e-10
1.7806e-10
-4.19606e-10
2.08544e-10
-4.48414e-10
2.411e-10
-4.74699e-10
2.75715e-10
-4.98288e-10
3.12406e-10
-5.18996e-10
3.51224e-10
-5.36622e-10
3.92273e-10
-5.50945e-10
4.35727e-10
-5.61722e-10
4.81853e-10
-5.68695e-10
5.31043e-10
-5.71603e-10
5.83832e-10
-5.70206e-10
6.40931e-10
-5.64329e-10
7.03222e-10
-5.53916e-10
7.71743e-10
-5.39104e-10
-5.203e-10
8.4763e-10
2.05274e-12
-2.39523e-11
7.30297e-12
-7.48267e-11
1.55991e-11
-1.24535e-10
2.67793e-11
-1.7195e-10
4.07e-11
-2.1706e-10
5.72294e-11
-2.60207e-10
7.62465e-11
-3.01576e-10
9.76449e-11
-3.41145e-10
1.21334e-10
-3.78789e-10
1.47241e-10
-4.14351e-10
1.7531e-10
-4.47674e-10
2.05501e-10
-4.78605e-10
2.37798e-10
-5.06996e-10
2.72206e-10
-5.32696e-10
3.08762e-10
-5.55552e-10
3.47542e-10
-5.75401e-10
3.88671e-10
-5.92074e-10
4.3234e-10
-6.05392e-10
4.78825e-10
-6.1518e-10
5.285e-10
-6.21277e-10
5.81857e-10
-6.23563e-10
6.39516e-10
-6.21988e-10
7.0222e-10
-6.1662e-10
7.70811e-10
-6.07695e-10
-5.95669e-10
8.46181e-10
1.98364e-12
-2.59362e-11
7.08854e-12
-7.99319e-11
1.51773e-11
-1.32624e-10
2.61018e-11
-1.82875e-10
3.97293e-11
-2.30687e-10
5.59355e-11
-2.76413e-10
7.46051e-11
-3.20245e-10
9.56366e-11
-3.62176e-10
1.18945e-10
-4.02097e-10
1.44462e-10
-4.39868e-10
1.72139e-10
-4.75351e-10
2.01947e-10
-5.08413e-10
2.33878e-10
-5.38927e-10
2.67951e-10
-5.66769e-10
3.04217e-10
-5.91817e-10
3.42764e-10
-6.13948e-10
3.83728e-10
-6.33038e-10
4.27304e-10
-6.48968e-10
4.73759e-10
-6.61634e-10
5.23439e-10
-6.70957e-10
5.76782e-10
-6.76907e-10
6.34321e-10
-6.79527e-10
6.9667e-10
-6.78969e-10
7.64505e-10
-6.7553e-10
-6.69685e-10
8.38521e-10
1.91408e-12
-2.78506e-11
6.86881e-12
-8.48869e-11
1.47399e-11
-1.40495e-10
2.53916e-11
-1.93527e-10
3.87017e-11
-2.43997e-10
5.4553e-11
-2.92264e-10
7.2836e-11
-3.38528e-10
9.34536e-11
-3.82793e-10
1.16325e-10
-4.24968e-10
1.41388e-10
-4.64931e-10
1.68599e-10
-5.02561e-10
1.97934e-10
-5.37748e-10
2.29393e-10
-5.70386e-10
2.63003e-10
-6.00379e-10
2.98821e-10
-6.27635e-10
3.3694e-10
-6.52066e-10
3.77496e-10
-6.73594e-10
4.20677e-10
-6.9215e-10
4.66731e-10
-7.07687e-10
5.15967e-10
-7.20194e-10
5.68767e-10
-7.29707e-10
6.25576e-10
-7.36336e-10
6.86896e-10
-7.40289e-10
7.53262e-10
-7.41895e-10
-7.41631e-10
8.25208e-10
1.8444e-12
-2.96953e-11
6.64665e-12
-8.96895e-11
1.42922e-11
-1.48141e-10
2.46578e-11
-2.03893e-10
3.76307e-11
-2.5697e-10
5.31005e-11
-3.07734e-10
7.09628e-11
-3.5639e-10
9.11248e-11
-4.02955e-10
1.1351e-10
-4.47353e-10
1.38058e-10
-4.89479e-10
1.64731e-10
-5.29233e-10
1.93508e-10
-5.66524e-10
2.24393e-10
-6.01271e-10
2.57414e-10
-6.33401e-10
2.9263e-10
-6.62851e-10
3.30131e-10
-6.89567e-10
3.70047e-10
-7.13509e-10
4.1255e-10
-7.34652e-10
4.5786e-10
-7.52997e-10
5.06248e-10
-7.68581e-10
5.58034e-10
-7.81492e-10
6.13583e-10
-7.91886e-10
6.73297e-10
-8.00003e-10
7.37589e-10
-8.06187e-10
-8.10903e-10
8.06861e-10
1.7771e-12
-3.14728e-11
6.42326e-12
-9.43361e-11
1.38378e-11
-1.55556e-10
2.39072e-11
-2.13962e-10
3.65266e-11
-2.6959e-10
5.15922e-11
-3.22799e-10
6.90041e-11
-3.73802e-10
8.86733e-11
-4.22624e-10
1.10526e-10
-4.69205e-10
1.34505e-10
-5.13458e-10
1.60572e-10
-5.55301e-10
1.8871e-10
-5.94662e-10
2.18922e-10
-6.31483e-10
2.51236e-10
-6.65714e-10
2.85704e-10
-6.97319e-10
3.2241e-10
-7.26274e-10
3.61471e-10
-7.5257e-10
4.03038e-10
-7.76219e-10
4.47299e-10
-7.97259e-10
4.94482e-10
-8.15764e-10
5.44848e-10
-8.31859e-10
5.9869e-10
-8.45727e-10
6.56316e-10
-8.57628e-10
7.18036e-10
-8.67908e-10
-8.77007e-10
7.8414e-10
1.70808e-12
-3.31813e-11
6.19924e-12
-9.88276e-11
1.33795e-11
-1.62737e-10
2.31444e-11
-2.23727e-10
3.5397e-11
-2.81842e-10
5.00391e-11
-3.37441e-10
6.69747e-11
-3.90737e-10
8.61176e-11
-4.41767e-10
1.07396e-10
-4.90483e-10
1.30754e-10
-5.36816e-10
1.56155e-10
-5.80701e-10
1.83579e-10
-6.22086e-10
2.13026e-10
-6.6093e-10
2.4452e-10
-6.97208e-10
2.78107e-10
-7.30905e-10
3.13858e-10
-7.62024e-10
3.51871e-10
-7.90583e-10
3.92274e-10
-8.16621e-10
4.35221e-10
-8.40206e-10
4.80895e-10
-8.61439e-10
5.29503e-10
-8.80467e-10
5.81267e-10
-8.97491e-10
6.36414e-10
-9.12776e-10
6.95166e-10
-9.26659e-10
-9.39555e-10
7.57713e-10
1.64055e-12
-3.48222e-11
5.97608e-12
-1.03164e-10
1.2919e-11
-1.6968e-10
2.2373e-11
-2.33181e-10
3.42477e-11
-2.93717e-10
4.84497e-11
-3.51643e-10
6.48862e-11
-4.07173e-10
8.34733e-11
-4.60354e-10
1.0414e-10
-5.1115e-10
1.26832e-10
-5.59507e-10
1.51509e-10
-6.05378e-10
1.78149e-10
-6.48726e-10
2.06749e-10
-6.8953e-10
2.37324e-10
-7.27782e-10
2.6991e-10
-7.63491e-10
3.04562e-10
-7.96677e-10
3.4136e-10
-8.27381e-10
3.80403e-10
-8.55664e-10
4.21813e-10
-8.81615e-10
4.65728e-10
-9.05354e-10
5.12302e-10
-9.27041e-10
5.61695e-10
-9.46883e-10
6.14061e-10
-9.65142e-10
6.69542e-10
-9.8214e-10
-9.98258e-10
7.28245e-10
1.57412e-12
-3.63968e-11
5.75402e-12
-1.07344e-10
1.24577e-11
-1.76384e-10
2.15955e-11
-2.4232e-10
3.3083e-11
-3.05205e-10
4.68306e-11
-3.65391e-10
6.27482e-11
-4.23091e-10
8.07536e-11
-4.78359e-10
1.00776e-10
-5.31172e-10
1.2276e-10
-5.8149e-10
1.46663e-10
-6.2928e-10
1.72458e-10
-6.74521e-10
2.00137e-10
-7.17208e-10
2.29705e-10
-7.5735e-10
2.61185e-10
-7.9497e-10
2.94617e-10
-8.30108e-10
3.30057e-10
-8.62821e-10
3.67579e-10
-8.93187e-10
4.0727e-10
-9.21306e-10
4.49227e-10
-9.47311e-10
4.93554e-10
-9.71367e-10
5.40353e-10
-9.93682e-10
5.89715e-10
-1.01451e-09
6.41712e-10
-1.03414e-09
-1.05292e-09
6.96379e-10
1.50869e-12
-3.7906e-11
5.53317e-12
-1.11369e-10
1.19961e-11
-1.82847e-10
2.08138e-11
-2.51138e-10
3.19063e-11
-3.16297e-10
4.51874e-11
-3.78672e-10
6.05693e-11
-4.38473e-10
7.79704e-11
-4.9576e-10
9.73198e-11
-5.50521e-10
1.18559e-10
-6.02729e-10
1.41644e-10
-6.52365e-10
1.66543e-10
-6.9942e-10
1.93237e-10
-7.43902e-10
2.21723e-10
-7.85836e-10
2.52009e-10
-8.25257e-10
2.84119e-10
-8.62218e-10
3.18087e-10
-8.9679e-10
3.5396e-10
-9.29059e-10
3.9179e-10
-9.59137e-10
4.31638e-10
-9.87159e-10
4.73561e-10
-1.01329e-09
5.1761e-10
-1.03773e-09
5.63821e-10
-1.06072e-09
6.12202e-10
-1.08252e-09
-1.10345e-09
6.62727e-10
1.44341e-12
-3.93499e-11
5.31362e-12
-1.1524e-10
1.15351e-11
-1.89069e-10
2.00293e-11
-2.59632e-10
3.07206e-11
-3.26989e-10
4.35253e-11
-3.91476e-10
5.83572e-11
-4.53304e-10
7.51351e-11
-5.12537e-10
9.37872e-11
-5.69173e-10
1.14253e-10
-6.23195e-10
1.36483e-10
-6.74594e-10
1.60439e-10
-7.23376e-10
1.86096e-10
-7.69559e-10
2.13439e-10
-8.13178e-10
2.42461e-10
-8.54279e-10
2.73169e-10
-8.92926e-10
3.05576e-10
-9.29196e-10
3.39701e-10
-9.63184e-10
3.75569e-10
-9.95004e-10
4.13201e-10
-1.02479e-09
4.52617e-10
-1.05271e-09
4.9382e-10
-1.07893e-09
5.36798e-10
-1.10369e-09
5.81507e-10
-1.12723e-09
-1.14981e-09
6.27865e-10
1.37997e-12
-4.07303e-11
5.09576e-12
-1.18956e-10
1.1075e-11
-1.95049e-10
1.92435e-11
-2.67801e-10
2.95286e-11
-3.37274e-10
4.18492e-11
-4.03797e-10
5.61199e-11
-4.67575e-10
7.22593e-11
-5.28676e-10
9.01945e-11
-5.87108e-10
1.09862e-10
-6.42862e-10
1.31207e-10
-6.95939e-10
1.54186e-10
-7.46355e-10
1.78765e-10
-7.94137e-10
2.04916e-10
-8.39328e-10
2.32621e-10
-8.81984e-10
2.61867e-10
-9.22173e-10
2.92649e-10
-9.59977e-10
3.2496e-10
-9.95496e-10
3.58797e-10
-1.02884e-09
3.9415e-10
-1.06014e-09
4.31e-10
-1.08956e-09
4.69315e-10
-1.11725e-09
5.09038e-10
-1.14342e-09
5.50082e-10
-1.16827e-09
-1.19205e-09
5.9232e-10
1.3173e-12
-4.20482e-11
4.87954e-12
-1.22519e-10
1.06166e-11
-2.00786e-10
1.84577e-11
-2.75642e-10
2.83335e-11
-3.4715e-10
4.01642e-11
-4.15628e-10
5.38653e-11
-4.81276e-10
6.9355e-11
-5.44166e-10
8.65584e-11
-6.04311e-10
1.05409e-10
-6.61712e-10
1.25847e-10
-7.16378e-10
1.47823e-10
-7.68331e-10
1.71293e-10
-8.17607e-10
1.96219e-10
-8.64254e-10
2.22568e-10
-9.08333e-10
2.50314e-10
-9.49918e-10
2.79429e-10
-9.89092e-10
3.09886e-10
-1.02595e-09
3.41657e-10
-1.06061e-09
3.74703e-10
-1.09319e-09
4.08974e-10
-1.12383e-09
4.44405e-10
-1.15268e-09
4.80903e-10
-1.17991e-09
5.18345e-10
-1.20571e-09
-1.23027e-09
5.56569e-10
1.25553e-12
-4.33043e-11
4.66507e-12
-1.25929e-10
1.01603e-11
-2.06282e-10
1.7674e-11
-2.83156e-10
2.71386e-11
-3.56615e-10
3.84761e-11
-4.26965e-10
5.16022e-11
-4.94402e-10
6.64346e-11
-5.58998e-10
8.28965e-11
-6.20772e-10
1.00918e-10
-6.79732e-10
1.20435e-10
-7.35894e-10
1.4139e-10
-7.89286e-10
1.63731e-10
-8.39948e-10
1.8741e-10
-8.87933e-10
2.12383e-10
-9.33306e-10
2.38605e-10
-9.7614e-10
2.66035e-10