/*--------------------------------*- C++ -*----------------------------------*\
  =========                 |
  \\      /  F ield         | OpenFOAM: The Open Source CFD Toolbox
   \\    /   O peration     | Website:  https://openfoam.org
    \\  /    A nd           | Version:  13
     \\/     M anipulation  |
\*---------------------------------------------------------------------------*/
FoamFile
{
    format      ascii;
    class       surfaceScalarField;
    location    "13";
    object      phi;
}
// * * * * * * * * * * * * * * * * * * * * * * * * * * * * * * * * * * * * * //

dimensions      [0 3 -1 0 0 0 0];

internalField   nonuniform List<scalar> 
12590
(
-1.60099e-08
7.75018e-09
-2.95881e-08
5.76041e-09
-3.17616e-08
-7.43975e-09
-1.49229e-08
-2.40134e-08
7.79102e-09
-3.25555e-08
1.88527e-08
-1.866e-08
-1.83145e-08
2.90319e-08
-1.03012e-07
8.05686e-08
-2.22009e-07
1.15057e-07
-3.44231e-07
1.19424e-07
-4.44027e-07
9.69637e-08
-5.05223e-07
5.91168e-08
-5.21926e-07
1.42356e-08
-4.851e-07
-3.85242e-08
-3.96839e-07
-9.08446e-08
-2.76751e-07
-1.22062e-07
-1.50467e-07
-1.31033e-07
-3.1106e-08
-1.23674e-07
6.39802e-08
-1.00939e-07
1.29166e-07
-6.87105e-08
1.55339e-07
-3.02261e-08
1.44192e-07
8.73798e-09
1.00787e-07
3.86692e-08
4.54155e-08
5.09782e-08
4.37998e-08
-2.01586e-08
2.01843e-08
-3.59545e-08
1.30248e-08
-3.43417e-08
-1.70615e-08
-1.63741e-08
-4.87388e-08
1.68898e-09
-5.89638e-08
-4.14113e-09
-2.09321e-08
-7.66697e-08
9.73266e-08
-1.91984e-07
1.93104e-07
-3.04542e-07
2.25056e-07
-3.86406e-07
1.98937e-07
-4.31742e-07
1.3987e-07
-4.42169e-07
6.69266e-08
-4.07453e-07
-2.32244e-08
-3.27752e-07
-1.20596e-07
-2.1081e-07
-2.1072e-07
-7.86693e-08
-2.5706e-07
5.2199e-08
-2.65217e-07
1.63356e-07
-2.37447e-07
2.41652e-07
-1.81917e-07
2.81529e-07
-1.10975e-07
2.8251e-07
-3.38189e-08
2.46419e-07
4.21203e-08
1.79548e-07
1.04048e-07
8.78841e-08
1.38649e-07
1.30535e-07
-1.73393e-08
2.9779e-08
-2.53932e-08
1.28841e-08
-1.34426e-08
-3.57898e-08
8.03372e-09
-7.51225e-08
2.31516e-08
-7.97034e-08
2.12513e-08
-2.4521e-08
-2.36975e-08
1.39032e-07
-9.52839e-08
2.61997e-07
-1.54335e-07
2.81559e-07
-1.89956e-07
2.31676e-07
-1.97376e-07
1.43425e-07
-1.75295e-07
4.0514e-08
-1.2272e-07
-7.99326e-08
-4.27698e-08
-2.03557e-07
6.56342e-08
-3.2184e-07
1.71254e-07
-3.64686e-07
2.61563e-07
-3.57528e-07
3.25077e-07
-3.02787e-07
3.55648e-07
-2.14489e-07
3.51247e-07
-1.0886e-07
3.13244e-07
1.71343e-09
2.49055e-07
1.04865e-07
1.65176e-07
1.84277e-07
7.36403e-08
2.27724e-07
2.02642e-07
-9.03069e-09
3.0667e-08
1.33533e-08
-1.64726e-08
5.59139e-08
-8.29548e-08
9.25336e-08
-1.14456e-07
1.11365e-07
-1.02163e-07
1.26744e-07
-4.32199e-08
1.33001e-07
1.30325e-07
1.17993e-07
2.74638e-07
1.02203e-07
2.94466e-07
9.24685e-08
2.37782e-07
9.84741e-08
1.32367e-07
1.2365e-07
1.04009e-08
1.67084e-07
-1.26357e-07
2.33917e-07
-2.7225e-07
3.06458e-07
-3.96011e-07
3.58452e-07
-4.1812e-07
3.90319e-07
-3.91015e-07
3.98657e-07
-3.1275e-07
3.82691e-07
-2.00699e-07
3.3939e-07
-6.81244e-08
2.70308e-07
6.81283e-08
1.87192e-07
1.84535e-07
1.03226e-07
2.6694e-07
2.50359e-08
3.01326e-07
2.26067e-07
1.27133e-08
1.07106e-08
9.07058e-08
-9.83689e-08
1.81144e-07
-1.76146e-07
2.45064e-07
-1.8027e-07
2.67944e-07
-1.27409e-07
2.70961e-07
-4.85988e-08
3.0338e-07
9.58567e-08
3.31807e-07
2.44337e-07
3.3598e-07
2.88352e-07
3.30547e-07
2.40766e-07
3.28603e-07
1.31434e-07
3.43037e-07
-6.60771e-09
3.77333e-07
-1.62503e-07
4.14272e-07
-3.10438e-07
4.30045e-07
-4.13062e-07
4.29942e-07
-4.19168e-07
4.07735e-07
-3.70368e-07
3.63232e-07
-2.70112e-07
2.99791e-07
-1.39976e-07
2.23487e-07
4.02637e-09
1.425e-07
1.45544e-07
6.23294e-08
2.62643e-07
-6.57005e-09
3.30944e-07
-4.55316e-08
3.36504e-07
1.78064e-07
7.05122e-08
-6.48308e-08
2.18365e-07
-2.48647e-07
3.55327e-07
-3.14814e-07
4.42346e-07
-2.68638e-07
4.69503e-07
-1.56321e-07
4.45556e-07
-2.65545e-08
4.41096e-07
9.86668e-08
4.6543e-07
2.18406e-07
4.81658e-07
2.70314e-07
4.86909e-07
2.33636e-07
4.85633e-07
1.30682e-07
4.85377e-07
-8.17977e-09
4.86966e-07
-1.65381e-07
4.7634e-07
-3.0074e-07
4.33157e-07
-3.70795e-07
3.70732e-07
-3.57959e-07
2.87884e-07
-2.89118e-07
1.99135e-07
-1.84607e-07
1.11009e-07
-5.80498e-08
3.37505e-08
7.53608e-08
-3.71273e-08
2.12439e-07
-9.45903e-08
3.1615e-07
-1.23142e-07
3.57605e-07
-1.07092e-07
3.14507e-07
6.77638e-08
1.62233e-07
-2.29893e-07
3.66523e-07
-4.54279e-07
5.18933e-07
-4.68392e-07
5.96869e-07
-3.47591e-07
6.12328e-07
-1.72943e-07
5.78818e-07
5.67693e-09
5.29241e-07
1.46823e-07
5.03285e-07
2.4299e-07
4.93946e-07
2.78213e-07
4.88417e-07
2.3763e-07
4.81149e-07
1.36183e-07
4.66182e-07
5.49575e-09
4.39309e-07
-1.3959e-07
3.90895e-07
-2.53143e-07
3.08922e-07
-2.89875e-07
2.04691e-07
-2.55475e-07
9.46635e-08
-1.82848e-07
-5.90167e-09
-9.06034e-08
-8.90939e-08
1.69278e-08
-1.58157e-07
1.39935e-07
-2.04199e-07
2.55111e-07
-2.1987e-07
3.29928e-07
-2.0158e-07
3.34998e-07
-1.17606e-07
2.24233e-07
-5.41684e-08
2.3728e-07
-4.68566e-07
4.41769e-07
-6.59783e-07
5.64618e-07
-5.92007e-07
6.08247e-07
-3.91764e-07
5.96265e-07
-1.61941e-07
5.4571e-07
5.52873e-08
4.7243e-07
2.19021e-07
4.09926e-07
3.04359e-07
3.71932e-07
3.14659e-07
3.50963e-07
2.57194e-07
3.35966e-07
1.4958e-07
3.15879e-07
2.33755e-08
2.78806e-07
-1.038e-07
2.06988e-07
-1.83087e-07
9.52896e-08
-1.80448e-07
-3.17225e-08
-1.3193e-07
-1.42457e-07
-7.69242e-08
-2.24765e-07
-1.32556e-08
-2.80141e-07
6.74292e-08
-3.08341e-07
1.64339e-07
-3.10515e-07
2.54194e-07
-2.83676e-07
2.99791e-07
-2.13374e-07
2.61735e-07
-7.43862e-08
7.66202e-08
-1.32427e-07
2.2913e-07
-6.98847e-07
3.77213e-07
-8.08351e-07
4.37297e-07
-6.52621e-07
4.17251e-07
-3.72435e-07
3.73937e-07
-1.19532e-07
3.21574e-07
1.06228e-07
2.46638e-07
2.92687e-07
1.71997e-07
3.77468e-07
1.19299e-07
3.65851e-07
9.87918e-08
2.75814e-07
1.05692e-07
1.39414e-07
1.03039e-07
2.31871e-08
4.38702e-08
-4.81182e-08
-5.92106e-08
-8.25477e-08
-1.64795e-07
-7.77419e-08
-2.50474e-07
-4.98717e-08
-3.20945e-07
-9.87537e-09
-3.71544e-07
3.28046e-08
-3.88999e-07
8.08094e-08
-3.73221e-07
1.44712e-07
-3.30922e-07
2.08098e-07
-2.65963e-07
2.32043e-07
-1.62573e-07
1.52677e-07
-2.66567e-08
-6.8324e-08
-1.62355e-07
1.54447e-07
-8.53864e-07
2.22698e-07
-8.77391e-07
2.12243e-07
-6.42853e-07
1.35366e-07
-2.97169e-07
5.62365e-08
-4.33852e-08
-2.43149e-08
1.84378e-07
-1.00255e-07
3.66795e-07
-1.63036e-07
4.38667e-07
-1.96092e-07
3.9705e-07
-2.00268e-07
2.78154e-07
-2.14185e-07
1.50709e-07
-2.68943e-07
7.5681e-08
-3.52432e-07
3.29948e-08
-4.27428e-07
-8.96033e-09
-4.66469e-07
-4.07884e-08
-4.6678e-07
-5.11102e-08
-4.46229e-07
-3.30084e-08
-4.22384e-07
5.84831e-09
-3.9542e-07
5.05803e-08
-3.45332e-07
9.02928e-08
-2.68093e-07
1.26729e-07
-1.79485e-07
1.38771e-07
-7.57495e-08
4.17254e-08
9.3891e-10
-1.57158e-07
-1.63532e-07
6.50169e-08
-9.19782e-07
5.04157e-08
-8.63479e-07
-1.74478e-08
-5.76812e-07
-1.14459e-07
-2.03363e-07
-2.28006e-07
6.60788e-08
-3.3188e-07
2.86329e-07
-4.09626e-07
4.42995e-07
-4.63743e-07
4.91529e-07
-5.04328e-07
4.36387e-07
-5.63905e-07
3.36382e-07
-6.69607e-07
2.55012e-07
-7.90714e-07
1.95571e-07
-8.89836e-07
1.30938e-07
-9.55849e-07
5.60984e-08
-9.74911e-07
-2.28311e-08
-9.30484e-07
-9.63272e-08
-8.15477e-07
-1.49413e-07
-6.44532e-07
-1.6618e-07
-4.60478e-07
-1.36202e-07
-2.99634e-07
-7.42831e-08
-1.70651e-07
-7.86857e-09
-6.07815e-08
2.29964e-08
1.44825e-08
-4.61265e-08
2.36773e-08
-1.72386e-07
-1.44202e-07
-2.40411e-08
-8.96284e-07
-1.1589e-07
-7.72857e-07
-2.26145e-07
-4.68288e-07
-3.35699e-07
-9.69338e-08
-4.49847e-07
1.77493e-07
-5.39045e-07
3.7371e-07
-6.06374e-07
5.09001e-07
-6.6708e-07
5.51106e-07
-7.56888e-07
5.25071e-07
-8.96625e-07
4.75143e-07
-1.06465e-06
4.22083e-07
-1.21737e-06
3.47469e-07
-1.33122e-06
2.43933e-07
-1.39778e-06
1.21872e-07
-1.41853e-06
-2.92545e-09
-1.39426e-06
-1.21444e-07
-1.31552e-06
-2.29042e-07
-1.1646e-06
-3.1829e-07
-9.30349e-07
-3.71913e-07
-6.39048e-07
-3.67958e-07
-3.48125e-07
-3.01946e-07
-1.17367e-07
-2.147e-07
-4.90611e-09
-1.62101e-07
2.46893e-08
-2.16582e-07
-1.19661e-07
-1.01039e-07
-7.95841e-07
-2.37804e-07
-6.36724e-07
-3.65748e-07
-3.42203e-07
-4.66281e-07
7.98614e-10
-5.5171e-07
2.60702e-07
-6.36731e-07
4.57176e-07
-7.19282e-07
5.90329e-07
-8.23971e-07
6.54835e-07
-9.69113e-07
6.69395e-07
-1.14194e-06
6.47267e-07
-1.30298e-06
5.82414e-07
-1.42621e-06
4.70035e-07
-1.50234e-06
3.19281e-07
-1.53384e-06
1.52584e-07
-1.53043e-06
-7.29828e-09
-1.50197e-06
-1.509e-07
-1.448e-06
-2.84252e-07
-1.36024e-06
-4.07433e-07
-1.2218e-06
-5.12014e-07
-1.01291e-06
-5.78782e-07
-7.30753e-07
-5.86424e-07
-4.22382e-07
-5.25397e-07
-1.60498e-07
-4.32747e-07
-6.85336e-09
-3.6749e-07
-1.32706e-07
-1.56688e-07
-6.39134e-07
-3.20943e-07
-4.73401e-07
-4.69593e-07
-1.95189e-07
-5.75779e-07
1.04708e-07
-6.70091e-07
3.53321e-07
-7.69579e-07
5.55367e-07
-8.79943e-07
6.99723e-07
-1.01122e-06
7.85315e-07
-1.15665e-06
8.14216e-07
-1.2928e-06
7.82805e-07
-1.3884e-06
6.77441e-07
-1.43149e-06
5.12462e-07
-1.42917e-06
3.1618e-07
-1.39524e-06
1.17657e-07
-1.34432e-06
-5.93082e-08
-1.29123e-06
-2.05328e-07
-1.23957e-06
-3.37508e-07
-1.18617e-06
-4.62659e-07
-1.11578e-06
-5.84244e-07
-9.9785e-07
-6.98611e-07
-8.10155e-07
-7.76489e-07
-5.5978e-07
-7.78845e-07
-2.71602e-07
-7.17874e-07
-5.92078e-08
-5.9017e-07
-1.97737e-07
-1.89617e-07
-4.49836e-07
-3.89711e-07
-2.73872e-07
-5.68904e-07
-1.75994e-08
-7.04633e-07
2.38678e-07
-8.22092e-07
4.69451e-07
-9.3217e-07
6.64233e-07
-1.04169e-06
8.08335e-07
-1.14902e-06
8.91922e-07
-1.24286e-06
9.07368e-07
-1.30198e-06
8.4147e-07
-1.31633e-06
6.91137e-07
-1.27899e-06
4.74592e-07
-1.1954e-06
2.31677e-07
-1.09861e-06
1.98583e-08
-1.02006e-06
-1.39097e-07
-9.53007e-07
-2.7392e-07
-8.91794e-07
-4.00477e-07
-8.36648e-07
-5.19731e-07
-7.85299e-07
-6.37352e-07
-7.32375e-07
-7.5316e-07
-6.60088e-07
-8.50344e-07
-5.1875e-07
-9.195e-07
-2.97049e-07
-9.44742e-07
-6.08448e-08
-8.31642e-07
-2.66076e-07
-2.07174e-07
-2.45367e-07
-4.30154e-07
-5.32327e-08
-6.21559e-07
1.71307e-07
-7.72296e-07
3.87812e-07
-8.95893e-07
5.90859e-07
-9.97678e-07
7.65257e-07
-1.08262e-06
8.91623e-07
-1.14477e-06
9.53857e-07
-1.18868e-06
9.4997e-07
-1.18737e-06
8.40245e-07
-1.13378e-06
6.36532e-07
-1.03042e-06
3.71309e-07
-9.16736e-07
1.16325e-07
-8.31134e-07
-6.58969e-08
-7.66029e-07
-2.0625e-07
-6.99821e-07
-3.40909e-07
-6.34408e-07
-4.68234e-07
-5.72076e-07
-5.83521e-07
-5.17134e-07
-6.93496e-07
-4.70243e-07
-8.01318e-07
-4.19395e-07
-9.02189e-07
-3.56328e-07
-9.81722e-07
-2.40757e-07
-1.06087e-06
-6.16106e-08
-1.01794e-06
-3.26155e-07
-2.08178e-07
-4.17594e-08
-4.18952e-07
1.52219e-07
-5.95422e-07
3.44776e-07
-7.3877e-07
5.26792e-07
-8.4851e-07
7.00108e-07
-9.32655e-07
8.45558e-07
-9.88169e-07
9.47692e-07
-1.01878e-06
9.80984e-07
-1.01934e-06
9.51987e-07
-9.73617e-07
7.91691e-07
-8.78864e-07
5.43473e-07
-7.60274e-07
2.49022e-07
-6.64248e-07
2.34577e-08
-6.07623e-07
-1.27987e-07
-5.44184e-07
-2.67963e-07
-4.79227e-07
-4.10983e-07
-4.11726e-07
-5.35954e-07
-3.49272e-07
-6.49715e-07
-2.93249e-07
-7.50414e-07
-2.52094e-07
-8.46305e-07
-2.17691e-07
-9.31218e-07
-1.99555e-07
-1.00023e-06
-1.51886e-07
-1.10787e-06
-3.19827e-08
-1.13305e-06
-3.77742e-07
-1.81828e-07
1.23152e-07
-3.56547e-07
3.20464e-07
-5.0559e-07
4.87546e-07
-6.20586e-07
6.40136e-07
-7.08269e-07
7.8194e-07
-7.6485e-07
9.01876e-07
-7.95231e-07
9.73022e-07
-7.98297e-07
9.84901e-07
-7.70271e-07
9.19585e-07
-7.01154e-07
7.24068e-07
-6.00862e-07
4.38428e-07
-4.90581e-07
1.43843e-07
-4.27474e-07
-4.94817e-08
-3.65775e-07
-1.86081e-07
-3.00741e-07
-3.42608e-07
-2.30185e-07
-4.81587e-07
-1.69077e-07
-6.04845e-07
-1.11961e-07
-7.09604e-07
-6.81923e-08
-8.01158e-07
-3.48062e-08
-8.77756e-07
-2.27371e-08
-9.46417e-07
-3.0907e-08
-9.89736e-07
-5.09666e-08
-1.0817e-06
-4.9139e-08
-1.16595e-06
-4.34998e-07
-1.29003e-07
2.44141e-07
-2.6314e-07
4.48266e-07
-3.72535e-07
5.931e-07
-4.56348e-07
7.17987e-07
-5.11883e-07
8.3545e-07
-5.42708e-07
9.27364e-07
-5.4591e-07
9.73457e-07
-5.27961e-07
9.62263e-07
-4.74525e-07
8.64614e-07
-3.98753e-07
6.44108e-07
-3.00621e-07
3.42421e-07
-2.14408e-07
4.81556e-08
-1.60996e-07
-1.0081e-07
-9.90871e-08
-2.59178e-07
-2.49536e-08
-4.19615e-07
4.15652e-08
-5.57581e-07
1.00452e-07
-6.699e-07
1.45694e-07
-7.62791e-07
1.7738e-07
-8.3839e-07
1.90167e-07
-8.96959e-07
1.80647e-07
-9.40407e-07
1.51221e-07
-9.61569e-07
5.8584e-08
-1.02095e-06
1.82828e-08
-1.13062e-06
-4.35654e-07
-7.09964e-08
3.03908e-07
-1.53242e-07
5.24844e-07
-2.22117e-07
6.56788e-07
-2.69398e-07
7.62008e-07
-2.94503e-07
8.54428e-07
-2.9476e-07
9.22058e-07
-2.7053e-07
9.43718e-07
-2.22475e-07
9.09358e-07
-1.4975e-07
7.87212e-07
-7.47906e-08
5.66978e-07
-2.24971e-08
2.8456e-07
3.1701e-08
-7.06717e-09
1.19773e-07
-1.9783e-07
2.13123e-07
-3.57072e-07
2.88973e-07
-5.01985e-07
3.5109e-07
-6.25182e-07
3.98693e-07
-7.23687e-07
4.29769e-07
-8.0075e-07
4.4255e-07
-8.5816e-07
4.33876e-07
-8.95001e-07
3.95068e-07
-9.09558e-07
3.14793e-07
-9.01466e-07
1.85578e-07
-8.90803e-07
4.17116e-09
-9.70965e-07
-4.27424e-07
-4.41611e-09
3.03387e-07
-2.12759e-08
5.37129e-07
-3.72817e-08
6.6841e-07
-3.72826e-08
7.55621e-07
-1.30563e-08
8.25479e-07
3.29233e-08
8.68827e-07
9.85608e-08
8.71374e-07
1.79901e-07
8.2182e-07
2.65119e-07
6.97617e-07
3.34418e-07
4.94178e-07
3.811e-07
2.36383e-07
4.03936e-07
-3.35024e-08
4.33484e-07
-2.29951e-07
4.66083e-07
-3.93254e-07
4.91602e-07
-5.31134e-07
5.05343e-07
-6.4298e-07
5.05879e-07
-7.28768e-07
4.913e-07
-7.91385e-07
4.60989e-07
-8.33477e-07
4.13907e-07
-8.54696e-07
3.4414e-07
-8.46975e-07
2.39822e-07
-8.00332e-07
5.11286e-08
-7.11203e-07
-2.44842e-07
-6.66919e-07
-4.9399e-07
-1.69581e-07
5.10722e-08
2.43012e-07
9.97311e-08
4.83601e-07
1.19354e-07
6.4425e-07
1.42318e-07
7.30255e-07
1.8448e-07
7.75461e-07
2.51896e-07
7.95771e-07
3.38492e-07
7.77785e-07
4.41895e-07
7.12989e-07
5.4785e-07
5.86761e-07
6.39785e-07
3.99454e-07
7.03447e-07
1.69443e-07
7.39342e-07
-7.03052e-08
7.71742e-07
-2.64903e-07
8.00922e-07
-4.24738e-07
8.19525e-07
-5.52135e-07
8.24816e-07
-6.50733e-07
8.16482e-07
-7.2321e-07
7.94583e-07
-7.72639e-07
7.59652e-07
-8.02156e-07
7.13309e-07
-8.11647e-07
6.58539e-07
-7.95182e-07
6.06094e-07
-7.48984e-07
5.8433e-07
-6.81668e-07
5.25331e-07
-5.99735e-07
-4.76872e-07
5.15022e-07
8.16716e-08
1.55951e-07
1.98773e-07
3.62779e-07
2.67104e-07
5.73441e-07
3.05933e-07
6.84672e-07
3.57127e-07
7.20975e-07
4.3249e-07
7.13139e-07
5.33065e-07
6.70072e-07
6.52124e-07
5.87573e-07
7.76325e-07
4.57491e-07
8.8938e-07
2.8223e-07
9.7983e-07
7.76847e-08
1.03906e-06
-1.33581e-07
1.08443e-06
-3.11761e-07
1.11534e-06
-4.57288e-07
1.13118e-06
-5.69613e-07
1.13212e-06
-6.53354e-07
1.11958e-06
-7.12481e-07
1.09482e-06
-7.49925e-07
1.05895e-06
-7.68454e-07
1.01395e-06
-7.68582e-07
9.63992e-07
-7.45782e-07
9.14567e-07
-6.97538e-07
8.70373e-07
-6.32983e-07
8.38244e-07
-5.61901e-07
-4.66952e-07
8.31274e-07
7.78056e-08
6.80384e-08
2.44314e-07
1.91405e-07
3.77015e-07
4.36426e-07
4.49931e-07
6.09939e-07
5.02547e-07
6.60889e-07
5.73038e-07
6.35268e-07
6.72373e-07
5.63532e-07
7.95931e-07
4.56589e-07
9.31803e-07
3.15948e-07
1.06434e-06
1.45927e-07
1.17791e-06
-4.12818e-08
1.26555e-06
-2.2118e-07
1.32934e-06
-3.77914e-07
1.37243e-06
-5.01995e-07
1.39701e-06
-5.95504e-07
1.40492e-06
-6.62493e-07
1.39826e-06
-7.07078e-07
1.37896e-06
-7.31967e-07
1.34882e-06
-7.39705e-07
1.31054e-06
-7.31311e-07
1.26815e-06
-7.03568e-07
1.22688e-06
-6.54639e-07
1.19067e-06
-5.93365e-07
1.16201e-06
-5.30656e-07
-4.58432e-07
1.15517e-06
6.21262e-08
-3.72871e-10
2.12909e-07
3.63736e-08
4.04641e-07
2.42087e-07
5.34381e-07
4.73611e-07
6.11742e-07
5.79987e-07
6.8001e-07
5.59612e-07
7.68739e-07
4.67174e-07
8.84642e-07
3.33885e-07
1.02115e-06
1.74045e-07
1.16439e-06
-2.14607e-09
1.30138e-06
-1.77595e-07
1.41435e-06
-3.39149e-07
1.50513e-06
-4.69564e-07
1.57211e-06
-5.70122e-07
1.61732e-06
-6.41739e-07
1.6427e-06
-6.88824e-07
1.65061e-06
-7.15902e-07
1.64333e-06
-7.25629e-07
1.62328e-06
-7.20556e-07
1.59379e-06
-7.02497e-07
1.55927e-06
-6.6888e-07
1.52472e-06
-6.19119e-07
1.49552e-06
-5.63003e-07
1.47654e-06
-5.09519e-07
-4.52136e-07
1.46984e-06
9.9298e-08
-1.05615e-07
1.83863e-07
-5.4479e-08
3.28021e-07
9.06076e-08
5.03996e-07
2.97186e-07
6.28906e-07
4.45943e-07
7.24305e-07
4.59153e-07
8.18542e-07
3.66328e-07
9.31219e-07
2.16048e-07
1.06767e-06
3.36776e-08
1.22362e-06
-1.5918e-07
1.37719e-06
-3.3705e-07
1.51856e-06
-4.78637e-07
1.63546e-06
-5.88526e-07
1.72847e-06
-6.64252e-07
1.79747e-06
-7.11521e-07
1.84448e-06
-7.36491e-07
1.87054e-06
-7.42586e-07
1.87725e-06
-7.32974e-07
1.8689e-06
-7.12838e-07
1.84992e-06
-6.83904e-07
1.82419e-06
-6.43259e-07
1.79674e-06
-5.9122e-07
1.7735e-06
-5.38222e-07
1.7566e-06
-4.93301e-07
-4.43865e-07
1.74895e-06
7.98552e-08
-1.87558e-07
1.15477e-07
-9.65825e-08
1.70127e-07
3.21734e-08
3.06935e-07
1.42879e-07
4.71549e-07
2.78765e-07
6.1508e-07
3.07606e-07
7.4358e-07
2.31405e-07
8.69827e-07
8.55996e-08
1.01077e-06
-1.10466e-07
1.16837e-06
-3.20251e-07
1.33444e-06
-5.0003e-07
1.4903e-06
-6.38849e-07
1.63296e-06
-7.31097e-07
1.75463e-06
-7.86123e-07
1.8527e-06
-8.09856e-07
1.92543e-06
-8.09511e-07
1.97519e-06
-7.92658e-07
2.00727e-06
-7.65408e-07
2.02379e-06
-7.29695e-07
2.02677e-06
-6.87173e-07
2.01925e-06
-6.35601e-07
2.00576e-06
-5.77228e-07
1.99169e-06
-5.24704e-07
1.98199e-06
-4.82183e-07
-4.36296e-07
1.97356e-06
-2.00995e-08
-1.73341e-07
-3.815e-08
-8.34522e-08
-6.51727e-08
4.09131e-08
-6.40188e-08
1.40046e-07
3.27783e-08
1.6373e-07
1.91776e-07
1.39641e-07
3.47268e-07
7.06037e-08
4.59327e-07
-3.16438e-08
5.693e-07
-2.21782e-07
7.27318e-07
-4.76585e-07
9.13636e-07
-6.90769e-07
1.11318e-06
-8.34715e-07
1.30412e-06
-9.22228e-07
1.47984e-06
-9.61724e-07
1.63482e-06
-9.64776e-07
1.76613e-06
-9.40817e-07
1.87176e-06
-8.98354e-07
1.95058e-06
-8.44339e-07
2.0062e-06
-7.85469e-07
2.04266e-06
-7.23687e-07
2.06644e-06
-6.59367e-07
2.08332e-06
-5.94122e-07
2.09681e-06
-5.36992e-07
2.10523e-06
-4.91608e-07
-4.37667e-07
2.1072e-06
-1.60151e-07
-9.15335e-09
-3.20674e-07
7.75459e-08
-4.27773e-07
1.4779e-07
-4.78085e-07
1.78084e-07
-4.93409e-07
1.79635e-07
-4.8658e-07
1.25464e-07
-4.32583e-07
1.1325e-08
-2.86597e-07
-1.78122e-07
-7.43874e-08
-4.31963e-07
1.51904e-07
-7.0329e-07
3.84137e-07
-9.16047e-07
6.03055e-07
-1.0555e-06
8.13306e-07
-1.13075e-06
1.01414e-06
-1.16161e-06
1.20661e-06
-1.15666e-06
1.38817e-06
-1.12201e-06
1.55364e-06
-1.06358e-06
1.69813e-06
-9.88677e-07
1.81886e-06
-9.061e-07
1.91429e-06
-8.19041e-07
1.98558e-06
-7.30457e-07
2.03957e-06
-6.47552e-07
2.08167e-06
-5.79639e-07
2.11254e-06
-5.21263e-07
-4.58283e-07
2.13288e-06
-2.81782e-07
2.72561e-07
-5.03294e-07
2.99461e-07
-6.50115e-07
2.91047e-07
-7.24325e-07
2.59562e-07
-7.29004e-07
1.7339e-07
-6.4875e-07
4.62572e-08
-5.06207e-07
-1.3033e-07
-3.20223e-07
-3.60386e-07
-1.29133e-07
-6.18766e-07
5.12978e-08
-8.77169e-07
2.2e-07
-1.08639e-06
3.83484e-07
-1.21316e-06
5.38964e-07
-1.28484e-06
6.95112e-07
-1.31644e-06
8.55805e-07
-1.31636e-06
1.02163e-06
-1.2871e-06
1.19004e-06
-1.23145e-06
1.35587e-06
-1.15408e-06
1.51131e-06
-1.06122e-06
1.6509e-06
-9.5835e-07
1.7722e-06
-8.51461e-07
1.87597e-06
-7.5124e-07
1.96266e-06
-6.65345e-07
2.02858e-06
-5.87634e-07
-5.0229e-07
2.07322e-06
-2.62727e-07
5.41146e-07
-4.72198e-07
5.1151e-07
-6.13387e-07
4.37828e-07
-6.95615e-07
3.30457e-07
-7.03686e-07
1.91088e-07
-6.48023e-07
-9.63513e-09
-5.2161e-07
-2.52486e-07
-3.5378e-07
-5.22166e-07
-1.69361e-07
-7.96966e-07
5.62932e-09
-1.04889e-06
1.68528e-07
-1.24094e-06
3.11041e-07
-1.35572e-06
4.39659e-07
-1.41048e-06
5.59913e-07
-1.43476e-06
6.80533e-07
-1.43561e-06
8.07914e-07
-1.41347e-06
9.448e-07
-1.36754e-06
1.08982e-06
-1.29848e-06
1.23804e-06
-1.20895e-06
1.38355e-06
-1.10347e-06
1.52225e-06
-9.89844e-07
1.65177e-06
-8.80281e-07
1.76638e-06
-7.8025e-07
1.85733e-06
-6.77612e-07
-5.58067e-07
1.91289e-06
-2.22833e-07
7.67816e-07
-4.06384e-07
6.98787e-07
-5.44454e-07
5.73485e-07
-6.25131e-07
4.24162e-07
-6.67375e-07
2.27717e-07
-6.42115e-07
-2.74792e-08
-5.49569e-07
-3.36828e-07
-4.09763e-07
-6.54107e-07
-2.43258e-07
-9.55901e-07
-7.00536e-08
-1.21412e-06
9.35555e-08
-1.40391e-06
2.46935e-07
-1.50265e-06
3.80045e-07
-1.54131e-06
4.97709e-07
-1.5504e-06
6.05723e-07
-1.54205e-06
7.1136e-07
-1.51786e-06
8.2072e-07
-1.47591e-06
9.37164e-07
-1.41411e-06
1.06101e-06
-1.33215e-06
1.19065e-06
-1.23262e-06
1.32425e-06
-1.12306e-06
1.45674e-06
-1.01271e-06
1.57405e-06
-8.96746e-07
1.65657e-06
-7.61039e-07
-5.99911e-07
1.69905e-06
-1.84884e-07
9.59991e-07
-3.45145e-07
8.64489e-07
-4.72116e-07
7.0956e-07
-5.75381e-07
5.22227e-07
-6.35044e-07
3.02757e-07
-6.447e-07
-8.19151e-09
-5.79176e-07
-3.92065e-07
-4.59801e-07
-7.63306e-07
-3.05951e-07
-1.10105e-06
-1.38997e-07
-1.37568e-06
2.75534e-08
-1.56154e-06
1.83195e-07
-1.65671e-06
3.25967e-07
-1.68046e-06
4.52204e-07
-1.67417e-06
5.64088e-07
-1.65213e-06
6.66166e-07
-1.61855e-06
7.64042e-07
-1.57268e-06
8.62813e-07
-1.51199e-06
9.66227e-07
-1.43487e-06
1.07608e-06
-1.34197e-06
1.19072e-06
-1.23743e-06
1.30087e-06
-1.1225e-06
1.38605e-06
-9.82948e-07
1.43616e-06
-8.09807e-07
-6.66172e-07
1.50147e-06
-1.51154e-07
1.11876e-06
-2.94223e-07
1.01464e-06
-4.2423e-07
8.42007e-07
-5.31637e-07
6.45702e-07
-6.11954e-07
3.90455e-07
-6.44828e-07
4.25538e-08
-6.02026e-07
-4.20818e-07
-4.98089e-07
-8.5534e-07
-3.51591e-07
-1.23775e-06
-1.83558e-07
-1.5347e-06
-1.83222e-08
-1.72377e-06
1.41175e-07
-1.80944e-06
2.8789e-07
-1.82388e-06
4.20533e-07
-1.80422e-06
5.38397e-07
-1.76807e-06
6.43537e-07
-1.72221e-06
7.39628e-07
-1.6676e-06
8.30874e-07
-1.60231e-06
9.20811e-07
-1.5241e-06
1.01046e-06
-1.43115e-06
1.09627e-06
-1.323e-06
1.16813e-06
-1.19469e-06
1.22678e-06
-1.04032e-06
1.30552e-06
-8.90521e-07
-8.59735e-07
1.49994e-06
-1.24053e-07
1.25081e-06
-2.54699e-07
1.15275e-06
-3.79117e-07
9.7765e-07
-4.96099e-07
7.69104e-07
-5.81607e-07
4.95754e-07
-6.34088e-07
1.19864e-07
-6.13088e-07
-4.24445e-07
-5.22072e-07
-9.32989e-07
-3.78869e-07
-1.37048e-06
-2.09248e-07
-1.69733e-06
-3.68175e-08
-1.88751e-06
1.23637e-07
-1.96622e-06
2.73389e-07
-1.96959e-06
4.09335e-07
-1.9373e-06
5.30951e-07
-1.8876e-06
6.39315e-07
-1.82899e-06
7.36645e-07
-1.76367e-06
8.25443e-07
-1.69012e-06
9.0758e-07
-1.60548e-06
9.83805e-07
-1.50687e-06
1.05432e-06
-1.39319e-06
1.12349e-06
-1.26324e-06
1.22484e-06
-1.14316e-06
1.43073e-06
-1.09442e-06
-1.18617e-06
1.75624e-06
-9.99648e-08
1.35995e-06
-2.15299e-07
1.27682e-06
-3.32654e-07
1.10208e-06
-4.42748e-07
8.92752e-07
-5.29505e-07
6.07977e-07
-5.92023e-07
2.12209e-07
-6.00972e-07
-3.96694e-07
-5.22978e-07
-9.96869e-07
-3.82723e-07
-1.50006e-06
-2.0872e-07
-1.86237e-06
-3.27131e-08
-2.05849e-06
1.31477e-07
-2.12447e-06
2.82601e-07
-2.11668e-06
4.19884e-07
-2.07164e-06
5.43228e-07
-2.0088e-06
6.54e-07
-1.93812e-06
7.54256e-07
-1.86264e-06
8.46325e-07
-1.78116e-06
9.3296e-07
-1.69133e-06
1.01933e-06
-1.59262e-06
1.11501e-06
-1.48846e-06
1.24277e-06
-1.39117e-06
1.44391e-06
-1.34249e-06
1.73012e-06
-1.38219e-06
-1.49855e-06
2.04359e-06
-7.53492e-08
1.44211e-06
-1.72863e-07
1.38072e-06
-2.72677e-07
1.21165e-06
-3.67236e-07
1.00561e-06
-4.55915e-07
7.13579e-07
-5.05827e-07
3.0011e-07
-5.49524e-07
-3.3207e-07
-4.85921e-07
-1.04722e-06
-3.50682e-07
-1.62574e-06
-1.77259e-07
-2.02899e-06
9.77206e-10
-2.23024e-06
1.64686e-07
-2.28339e-06
3.1487e-07
-2.26326e-06
4.51156e-07
-2.20515e-06
5.74392e-07
-2.12994e-06
6.87019e-07
-2.0491e-06
7.92373e-07
-1.96666e-06
8.94709e-07
-1.88241e-06
9.99833e-07
-1.79557e-06
1.11656e-06
-1.70868e-06
1.25911e-06
-1.63048e-06
1.44914e-06
-1.58028e-06
1.68686e-06
-1.58117e-06
1.93914e-06
-1.63246e-06
-1.71063e-06
2.15081e-06
-4.7213e-08
1.49674e-06
-1.20811e-07
1.46253e-06
-1.95798e-07
1.29662e-06
-2.72796e-07
1.08635e-06
-3.39155e-07
8.1358e-07
-3.60395e-07
3.44884e-07
-4.36733e-07
-2.38581e-07
-3.91569e-07
-1.08148e-06
-2.68521e-07
-1.74093e-06
-1.03804e-07
-2.18768e-06
6.774e-08
-2.39687e-06
2.25481e-07
-2.43768e-06
3.70421e-07
-2.4047e-06
5.0203e-07
-2.33418e-06
6.22249e-07
-2.24819e-06
7.34789e-07
-2.16006e-06
8.44546e-07
-2.07512e-06
9.57377e-07
-1.99416e-06
1.08022e-06
-1.91753e-06
1.22113e-06
-1.84884e-06
1.38808e-06
-1.79685e-06
1.57966e-06
-1.77175e-06
1.77684e-06
-1.77662e-06
1.94937e-06
-1.80592e-06
-1.84822e-06
2.0881e-06
-1.40964e-08
1.51519e-06
-6.08103e-08
1.51333e-06
-1.09507e-07
1.34775e-06
-1.44521e-07
1.14245e-06
-2.06423e-07
8.76296e-07
-1.4182e-07
3.12922e-07
-2.34751e-07
-1.26814e-07
-2.18698e-07
-1.08947e-06
-1.22223e-07
-1.83182e-06
1.72725e-08
-2.32286e-06
1.70263e-07
-2.54719e-06
3.15036e-07
-2.57857e-06
4.48047e-07
-2.53551e-06
5.69958e-07
-2.45413e-06
6.82735e-07
-2.35931e-06
7.90679e-07
-2.26661e-06
8.9898e-07
-2.18223e-06
1.01293e-06
-2.10711e-06
1.1376e-06
-2.04138e-06
1.27629e-06
-1.98689e-06
1.42724e-06
-1.94723e-06
1.5816e-06
-1.92524e-06
1.72671e-06
-1.92231e-06
1.85983e-06
-1.93723e-06
-1.97166e-06
1.98316e-06
2.29893e-08
1.49562e-06
6.74428e-09
1.53278e-06
-4.7757e-09
1.36673e-06
-9.23027e-09
1.13836e-06
4.57393e-09
8.87723e-07
1.58877e-07
1.75098e-07
6.68348e-08
-2.71864e-08
3.93176e-08
-1.05778e-06
8.97075e-08
-1.87938e-06
1.84891e-07
-2.41625e-06
3.0903e-07
-2.66841e-06
4.30103e-07
-2.69908e-06
5.44797e-07
-2.64833e-06
6.51157e-07
-2.55898e-06
7.51191e-07
-2.45803e-06
8.48741e-07
-2.36299e-06
9.47906e-07
-2.28039e-06
1.05224e-06
-2.21059e-06
1.16403e-06
-2.15246e-06
1.28339e-06
-2.10563e-06
1.40785e-06
-2.07118e-06
1.53424e-06
-2.05147e-06
1.66228e-06
-2.04885e-06
1.7902e-06
-2.06575e-06
-2.09865e-06
1.91829e-06
6.1782e-08
1.43407e-06
8.26897e-08
1.51145e-06
9.56959e-08
1.34889e-06
1.28899e-07
1.11408e-06
1.78026e-07
8.2837e-07
2.71113e-07
7.69594e-08
3.47995e-07
-1.05475e-07
3.32284e-07
-1.04232e-06
3.39462e-07
-1.88637e-06
3.88044e-07
-2.46408e-06
4.7481e-07
-2.75601e-06
5.65893e-07
-2.78841e-06
6.55204e-07
-2.7371e-06
7.40953e-07
-2.64392e-06
8.23887e-07
-2.54008e-06
9.0691e-07
-2.44514e-06
9.92982e-07
-2.36565e-06
1.08423e-06
-2.30112e-06
1.18175e-06
-2.24936e-06
1.28595e-06
-2.20932e-06
1.397e-06
-2.18175e-06
1.51472e-06
-2.16844e-06
1.63643e-06
-2.17094e-06
1.75986e-06
-2.18762e-06
-2.2181e-06
1.87936e-06
1.02486e-07
1.32874e-06
1.5902e-07
1.45223e-06
2.03527e-07
1.30386e-06
2.40738e-07
1.06395e-06
2.90522e-07
7.73744e-07
3.0242e-07
4.62262e-08
5.299e-07
-3.42506e-07
5.85929e-07
-1.10169e-06
5.84763e-07
-1.88699e-06
6.03505e-07
-2.48438e-06
6.54779e-07
-2.80671e-06
7.10548e-07
-2.84546e-06
7.71834e-07
-2.79819e-06
8.33942e-07
-2.70566e-06
8.97443e-07
-2.60304e-06
9.64917e-07
-2.512e-06
1.0384e-06
-2.43852e-06
1.1189e-06
-2.38104e-06
1.20685e-06
-2.33679e-06
1.3024e-06
-2.30438e-06
1.40492e-06
-2.28384e-06
1.51223e-06
-2.27559e-06
1.62196e-06
-2.27943e-06
1.72981e-06
-2.29587e-06
-2.32266e-06
1.83531e-06
1.43514e-07
1.18179e-06
2.36834e-07
1.35519e-06
3.1188e-07
1.22149e-06
3.8634e-07
9.86087e-07
4.81835e-07
6.61596e-07
4.93004e-07
1.42192e-08
6.75122e-07
-5.34859e-07
7.76727e-07
-1.20831e-06
7.94386e-07
-1.90763e-06
8.05053e-07
-2.49656e-06
8.28404e-07
-2.83247e-06
8.52617e-07
-2.86988e-06
8.85771e-07
-2.83195e-06
9.23265e-07
-2.74328e-06
9.67046e-07
-2.64664e-06
1.01954e-06
-2.56415e-06
1.08141e-06
-2.49998e-06
1.1521e-06
-2.45131e-06
1.23065e-06
-2.41494e-06
1.31585e-06
-2.38922e-06
1.40608e-06
-2.3737e-06
1.49961e-06
-2.36851e-06
1.59412e-06
-2.37419e-06
1.68949e-06
-2.38997e-06
-2.41679e-06
1.78372e-06
1.79737e-07
9.94514e-07
3.11261e-07
1.21822e-06
4.18003e-07
1.11047e-06
5.17486e-07
8.76197e-07
6.36999e-07
5.27544e-07
6.86032e-07
-5.15841e-08
8.08261e-07
-6.66379e-07
9.07637e-07
-1.31311e-06
9.52217e-07
-1.95571e-06
9.70514e-07
-2.51761e-06
9.7926e-07
-2.84224e-06
9.80272e-07
-2.8727e-06
9.87367e-07
-2.83991e-06
1.00133e-06
-2.75766e-06
1.02679e-06
-2.67219e-06
1.06532e-06
-2.60255e-06
1.11569e-06
-2.5501e-06
1.17571e-06
-2.51104e-06
1.24336e-06
-2.48228e-06
1.31697e-06
-2.4625e-06
1.39519e-06
-2.4516e-06
1.47678e-06
-2.44997e-06
1.56128e-06
-2.45771e-06
1.64671e-06
-2.47568e-06
-2.50247e-06
1.73317e-06
2.13047e-07
7.76761e-07
3.79091e-07
1.04761e-06
5.08266e-07
9.7479e-07
6.22745e-07
7.52921e-07
7.41794e-07
3.97326e-07
8.18025e-07
-1.42204e-07
9.03755e-07
-7.60249e-07
9.96194e-07
-1.41081e-06
1.06606e-06
-2.02907e-06
1.0996e-06
-2.55337e-06
1.09574e-06
-2.84074e-06
1.08287e-06
-2.86114e-06
1.06689e-06
-2.82498e-06
1.06142e-06
-2.75279e-06
1.0724e-06
-2.68342e-06
1.09958e-06
-2.62976e-06
1.13988e-06
-2.5903e-06
1.19014e-06
-2.56112e-06
1.24799e-06
-2.53992e-06
1.31188e-06
-2.52617e-06
1.38068e-06
-2.52015e-06
1.45351e-06
-2.52232e-06
1.5288e-06
-2.53322e-06
1.60637e-06
-2.55222e-06
-2.58022e-06
1.68421e-06
2.3625e-07
5.31e-07
4.32913e-07
8.44944e-07
5.83894e-07
8.18312e-07
7.11784e-07
6.19878e-07
8.21588e-07
2.72647e-07
8.99601e-07
-2.29582e-07
9.69605e-07
-8.3699e-07
1.06249e-06
-1.50825e-06
1.15211e-06
-2.12189e-06
1.19555e-06
-2.59923e-06
1.17796e-06
-2.82481e-06
1.14958e-06
-2.83423e-06
1.11764e-06
-2.79422e-06
1.10054e-06
-2.73641e-06
1.10324e-06
-2.68647e-06
1.12321e-06
-2.64987e-06
1.1562e-06
-2.62328e-06
1.19875e-06
-2.60357e-06
1.24864e-06
-2.58966e-06
1.30444e-06
-2.58178e-06
1.36504e-06
-2.58054e-06
1.42926e-06
-2.58646e-06
1.4965e-06
-2.59967e-06
1.56499e-06
-2.62095e-06
-2.64939e-06
1.63479e-06
2.36511e-07
2.89505e-07
4.63502e-07
6.14137e-07
6.32485e-07
6.45663e-07
7.64562e-07
4.76635e-07
8.63188e-07
1.69201e-07
9.21229e-07
-2.96522e-07
9.94865e-07
-9.16086e-07
1.10756e-06
-1.62457e-06
1.21364e-06
-2.23056e-06
1.25572e-06
-2.6432e-06
1.2211e-06
-2.79168e-06
1.17883e-06
-2.79354e-06
1.14063e-06
-2.75698e-06
1.12075e-06
-2.7172e-06
1.12109e-06
-2.68721e-06
1.13744e-06
-2.66641e-06
1.16527e-06
-2.65118e-06
1.20157e-06
-2.63984e-06
1.24454e-06
-2.63254e-06
1.29296e-06
-2.63008e-06
1.34585e-06
-2.63325e-06
1.40235e-06
-2.6426e-06
1.46119e-06
-2.65872e-06
1.52231e-06
-2.68123e-06
-2.71117e-06
1.58413e-06
1.95365e-07
8.4505e-08
4.48782e-07
3.55996e-07
6.2445e-07
4.64093e-07
7.51025e-07
3.49386e-07
8.14861e-07
9.29193e-08
8.59057e-07
-3.45816e-07
9.7131e-07
-1.03173e-06
1.12792e-06
-1.78375e-06
1.24289e-06
-2.34735e-06
1.26889e-06
-2.67057e-06
1.22633e-06
-2.75069e-06
1.17885e-06
-2.74681e-06
1.14272e-06
-2.72187e-06
1.12641e-06
-2.70155e-06
1.12802e-06
-2.68921e-06
1.14264e-06
-2.68125e-06
1.16652e-06
-2.67516e-06
1.19754e-06
-2.67088e-06