/*--------------------------------*- C++ -*----------------------------------*\
  =========                 |
  \\      /  F ield         | OpenFOAM: The Open Source CFD Toolbox
   \\    /   O peration     | Website:  https://openfoam.org
    \\  /    A nd           | Version:  13
     \\/     M anipulation  |
\*---------------------------------------------------------------------------*/
FoamFile
{
    format      ascii;
    class       volVectorField;
    location    "13";
    object      U;
}
// * * * * * * * * * * * * * * * * * * * * * * * * * * * * * * * * * * * * * //

dimensions      [0 1 -1 0 0 0 0];

internalField   nonuniform List<vector> 
6440
(
(-0.00828505 0.00268717 0)
(-0.0208618 0.000968358 0)
(-0.0224051 -0.00820252 -1.72915e-15)
(-0.012767 -0.021298 1.70698e-15)
(0.00400772 -0.028646 0)
(0.0134261 -0.0197857 -3.31653e-15)
(0.0158144 0.00933486 2.666e-15)
(-0.0128848 0.0531799 0)
(-0.120032 0.0952967 0)
(-0.263617 0.115395 0)
(-0.391071 0.107909 1.25613e-15)
(-0.482086 0.0758242 -2.28804e-15)
(-0.527412 0.0361027 1.12964e-15)
(-0.524601 -0.0111371 0)
(-0.460892 -0.0473936 -2.43474e-15)
(-0.3352 -0.0728179 2.94304e-15)
(-0.215398 -0.0882225 0)
(-0.0912739 -0.0938104 0)
(0.0150746 -0.0807944 0)
(0.103329 -0.056097 0)
(0.159099 -0.0247084 -5.37783e-15)
(0.174234 0.00658719 1.08672e-14)
(0.147753 0.0284635 -5.78337e-15)
(0.0944028 0.0348935 -7.18278e-15)
(0.034017 0.0334262 8.69476e-15)
(-0.0119258 0.0118886 0)
(-0.0306897 0.00373907 0)
(-0.0311513 -0.0262104 -1.65704e-15)
(-0.0149803 -0.0584901 1.47531e-15)
(0.0132107 -0.0628026 0)
(0.0254353 -0.00640914 -3.74407e-15)
(0.0117269 0.120487 3.27202e-15)
(-0.0755369 0.231058 -8.93978e-16)
(-0.201893 0.275889 0)
(-0.313604 0.250194 0)
(-0.397151 0.177113 0)
(-0.448818 0.0831371 -1.20205e-15)
(-0.464377 -0.0220453 1.31481e-15)
(-0.411675 -0.130506 1.312e-15)
(-0.316479 -0.230194 -1.41272e-15)
(-0.201849 -0.288806 0)
(-0.0751884 -0.304335 0)
(0.0476067 -0.280371 0)
(0.154527 -0.222613 0)
(0.238515 -0.144 0)
(0.283935 -0.0576008 -3.4821e-15)
(0.292652 0.0267346 3.5963e-15)
(0.263536 0.0967408 0)
(0.199526 0.135049 -4.36571e-15)
(0.084413 0.127193 1.15089e-14)
(-0.0101822 0.0235911 0)
(-0.0255712 0.00814428 0)
(-0.0180154 -0.0414445 0)
(0.0102326 -0.0919558 0)
(0.0534629 -0.0958799 0)
(0.0934564 0.0073097 0)
(0.0823074 0.215951 1.27867e-15)
(0.00584399 0.359739 -8.45788e-16)
(-0.0724045 0.37959 0)
(-0.139824 0.306263 0)
(-0.197351 0.187462 0)
(-0.222806 0.0579707 0)
(-0.198361 -0.0768781 0)
(-0.150636 -0.224698 2.10038e-15)
(-0.0649651 -0.375533 -5.00467e-15)
(0.0209282 -0.444471 2.56182e-15)
(0.1153 -0.444081 0)
(0.20222 -0.384135 0)
(0.275392 -0.280497 0)
(0.324744 -0.155011 0)
(0.340267 -0.0235327 0)
(0.331297 0.101235 0)
(0.293532 0.203019 3.09591e-15)
(0.233101 0.263453 -3.50095e-15)
(0.115072 0.246934 4.343e-15)
(-0.00486689 0.0312886 0)
(-0.00227468 0.000726999 0)
(0.0336271 -0.0729906 -1.06852e-15)
(0.0811642 -0.127234 7.60981e-16)
(0.128028 -0.130069 0)
(0.184248 -0.0467521 -1.69246e-15)
(0.216411 0.216239 8.79605e-16)
(0.190691 0.407285 0)
(0.158026 0.421043 1.52541e-15)
(0.116251 0.335972 -1.86614e-15)
(0.0753475 0.195652 2.56997e-15)
(0.0833181 0.0444461 -7.10895e-15)
(0.0956879 -0.133102 1.96047e-15)
(0.120204 -0.324532 0)
(0.168147 -0.498133 0)
(0.214787 -0.543552 0)
(0.257112 -0.517171 1.61703e-15)
(0.291274 -0.422626 7.10427e-20)
(0.321579 -0.282134 -2.01696e-15)
(0.336008 -0.118998 0)
(0.328532 0.0472115 0)
(0.308673 0.198652 2.90775e-15)
(0.271073 0.315452 -2.94775e-15)
(0.219075 0.375774 -3.23541e-15)
(0.115115 0.330043 7.9356e-15)
(0.000811255 0.0216141 0)
(0.0437368 -0.0658824 0)
(0.128545 -0.160705 -5.5576e-16)
(0.21135 -0.193217 4.38978e-16)
(0.26933 -0.162801 0)
(0.298021 -0.0959641 -1.05473e-15)
(0.345506 0.131329 6.44275e-16)
(0.380007 0.345285 0)
(0.387143 0.392636 9.97627e-16)
(0.365635 0.327408 -1.12552e-15)
(0.33411 0.18414 1.40373e-15)
(0.313207 0.00697858 -3.19831e-15)
(0.300786 -0.197008 1.1245e-15)
(0.309251 -0.399418 0)
(0.309788 -0.557358 1.46402e-15)
(0.30777 -0.567524 -1.44117e-15)
(0.307632 -0.517837 1.54075e-15)
(0.293888 -0.394439 -8.15126e-20)
(0.264581 -0.234901 -2.39967e-15)
(0.238994 -0.052301 0)
(0.229404 0.139511 3.52009e-15)
(0.219069 0.302808 6.91059e-19)
(0.191686 0.414806 -3.21649e-15)
(0.165992 0.461233 -3.18204e-15)
(0.0786045 0.323852 3.99296e-15)
(0.0172798 -0.024672 0)
(0.128547 -0.212927 0)
(0.270621 -0.322288 -3.07125e-16)
(0.385983 -0.308796 2.68287e-16)
(0.461429 -0.21044 0)
(0.475981 -0.0877844 -6.93455e-16)
(0.471784 0.0770529 5.31482e-16)
(0.500299 0.25963 0)
(0.526224 0.337769 8.23232e-16)
(0.524278 0.288907 -8.86239e-16)
(0.497585 0.153016 1.0518e-15)
(0.464166 -0.0308033 -2.30536e-15)
(0.429412 -0.235091 9.03786e-16)
(0.397061 -0.416147 0)
(0.351781 -0.523889 -1.45455e-15)
(0.302505 -0.521034 1.57511e-15)
(0.240576 -0.437592 1.89382e-15)
(0.16217 -0.30945 -3.55113e-19)
(0.102244 -0.149462 -4.4001e-15)
(0.0741904 0.0442534 0)
(0.0839026 0.240607 -4.61358e-15)
(0.0881453 0.400186 6.51505e-15)
(0.0842786 0.486718 -2.63719e-15)
(0.0852268 0.472946 -2.62009e-15)
(0.0261447 0.225426 4.49777e-15)
(0.0592194 -0.157234 0)
(0.240406 -0.447445 0)
(0.416191 -0.524699 -1.98767e-16)
(0.537458 -0.432406 1.91922e-16)
(0.602759 -0.252144 0)
(0.614225 -0.0563752 -5.16896e-16)
(0.584301 0.109617 4.44331e-16)
(0.557415 0.242408 0)
(0.547007 0.305854 7.85707e-16)
(0.531944 0.264783 -8.52153e-16)
(0.500579 0.13756 1.01622e-15)
(0.456361 -0.0343593 -2.35552e-15)
(0.40983 -0.217476 9.65163e-16)
(0.350509 -0.367797 0)
(0.275319 -0.429588 0)
(0.195985 -0.398939 0)
(0.0933711 -0.312568 3.03174e-15)
(-0.010311 -0.194684 -7.68864e-19)
(-0.055921 -0.0461591 -9.64657e-15)
(-0.0757707 0.149245 0)
(-0.0628541 0.323573 0)
(-0.0423153 0.445801 2.30362e-15)
(-0.0178816 0.475272 -2.18213e-15)
(0.00089166 0.387315 -2.59569e-15)
(-0.0195901 0.0304028 6.51824e-15)
(0.111181 -0.435053 0)
(0.314461 -0.720898 0)
(0.46912 -0.694625 -1.58341e-16)
(0.555238 -0.496755 1.69408e-16)
(0.606561 -0.241169 0)
(0.589116 0.0125541 -4.83385e-16)
(0.552991 0.209786 4.25637e-16)
(0.495359 0.321371 0)
(0.449269 0.349796 8.56829e-16)
(0.408796 0.29096 -9.7263e-16)
(0.364619 0.161125 1.22104e-15)
(0.322457 0.00756274 -3.28863e-15)
(0.279405 -0.152516 1.34884e-15)
(0.201744 -0.28002 0)
(0.111669 -0.308422 0)
(0.0189714 -0.255542 0)
(-0.10177 -0.171897 4.58444e-15)
(-0.192019 -0.05988 -4.69488e-19)
(-0.220886 0.0766196 -3.89643e-15)
(-0.208018 0.222907 0)
(-0.174387 0.356637 0)
(-0.12842 0.430113 2.05469e-15)
(-0.0847037 0.414147 -2.191e-15)
(-0.059003 0.212666 -3.23606e-15)
(-0.049233 -0.135724 1.49119e-14)
(0.126155 -0.732653 0)
(0.284122 -0.913948 0)
(0.370441 -0.770673 0)
(0.393445 -0.473991 0)
(0.381375 -0.170837 5.38313e-16)
(0.373866 0.108089 -6.06656e-16)
(0.348932 0.326465 5.0444e-16)
(0.284654 0.434107 -4.95386e-16)
(0.215878 0.432886 1.10384e-15)
(0.163782 0.347491 9.2151e-19)
(0.131954 0.210821 6.35163e-19)
(0.128874 0.0669558 -3.31936e-15)
(0.0604598 -0.0885477 -2.7724e-15)
(-0.0540912 -0.183557 5.04747e-15)
(-0.139148 -0.176796 -6.45886e-15)
(-0.198876 -0.127832 3.7012e-15)
(-0.262899 -0.0648885 0)
(-0.315809 0.0131535 3.48495e-15)
(-0.323968 0.113942 -2.87132e-15)
(-0.279226 0.227878 2.42074e-15)
(-0.217197 0.326402 5.682e-19)
(-0.152932 0.36455 4.91976e-19)
(-0.110666 0.275325 -2.62305e-15)
(-0.0977598 0.00135009 0)
(-0.072128 -0.195252 -5.97041e-15)
(0.095653 -0.951355 0)
(0.175956 -1.02153 0)
(0.178661 -0.770247 0)
(0.124301 -0.371987 0)
(0.0641447 -0.0377058 -1.14518e-15)
(0.0450838 0.23087 1.12717e-15)
(0.024762 0.43851 -7.67791e-16)
(-0.0447355 0.526403 6.18934e-16)
(-0.105709 0.494749 0)
(-0.145885 0.359295 -1.31304e-15)
(-0.183109 0.165741 -5.0695e-19)
(-0.253296 0.0137315 2.02739e-15)
(-0.356165 -0.0522915 0)
(-0.442238 -0.0893072 -1.34356e-15)
(-0.482289 -0.0982601 3.45229e-15)
(-0.471374 -0.0748095 -2.2237e-15)
(-0.418706 -0.0228859 2.39982e-15)
(-0.367897 0.0417433 -2.76978e-15)
(-0.315663 0.10635 0)
(-0.262867 0.179404 -2.74254e-15)
(-0.193846 0.242243 5.40375e-15)
(-0.128714 0.245809 -5.72954e-15)
(-0.106964 0.110507 3.73192e-15)
(-0.130866 -0.188414 0)
(-0.0841303 -0.216184 -5.62807e-15)
(0.0501449 -1.07752 0)
(0.0501744 -1.05225 0)
(-0.0174917 -0.71547 0)
(-0.129387 -0.230481 0)
(-0.193468 0.12744 1.47188e-15)
(-0.238583 0.353638 -6.63244e-16)
(-0.295679 0.533133 4.39783e-16)
(-0.357974 0.588783 -3.74139e-16)
(-0.41094 0.501749 7.35359e-16)
(-0.480538 0.339073 4.56606e-19)
(-0.598042 0.198005 -8.03962e-16)
(-0.742705 0.114776 0)
(-0.869093 0.0486249 -7.17993e-16)
(-0.956175 -0.0140453 1.34827e-15)
(-0.998249 -0.0690467 -1.89793e-15)
(-0.98492 -0.109039 1.19866e-15)
(-0.893338 -0.116154 0)
(-0.712251 -0.072939 1.40286e-15)
(-0.466286 0.0205226 -1.78175e-15)
(-0.25696 0.0979914 2.47551e-15)
(-0.146862 0.139968 4.78651e-19)
(-0.087707 0.132075 -4.45258e-15)
(-0.0776192 -0.01095 0)
(-0.13567 -0.235925 0)
(-0.0813119 -0.21568 0)
(0.00233971 -1.1157 0)
(-0.0716013 -1.00486 0)
(-0.173922 -0.631281 2.25075e-16)
(-0.297047 -0.157897 -3.44202e-16)
(-0.395507 0.203284 0)
(-0.457217 0.417855 4.23218e-16)
(-0.513246 0.566084 -6.57825e-16)
(-0.562595 0.594594 2.94265e-16)
(-0.634758 0.527777 0)
(-0.767322 0.431387 0)
(-0.949349 0.356485 0)
(-1.12965 0.277582 4.79287e-16)
(-1.27625 0.178067 -4.5888e-16)
(-1.37541 0.0661125 -4.55578e-16)
(-1.425 -0.0483856 -4.60833e-16)
(-1.43645 -0.154766 8.58239e-16)
(-1.4035 -0.243788 8.27308e-16)
(-1.29929 -0.296419 -8.38968e-16)
(-1.09637 -0.285364 0)
(-0.812813 -0.192852 0)
(-0.488686 -0.0586035 1.75365e-15)
(-0.252446 -0.00142405 -2.95513e-15)
(-0.174566 -0.0855701 0)
(-0.168417 -0.25118 6.85193e-15)
(-0.0579399 -0.192738 -1.21667e-14)
(-0.0336681 -1.06172 0)
(-0.170133 -0.881741 0)
(-0.284366 -0.546952 -2.14692e-16)
(-0.396299 -0.142263 3.0525e-16)
(-0.48627 0.201919 4.67823e-16)
(-0.558035 0.44319 -6.68626e-16)
(-0.616821 0.595749 5.45809e-16)
(-0.688919 0.653861 -2.41848e-16)
(-0.808748 0.651285 0)
(-0.981122 0.620067 4.11297e-16)
(-1.16513 0.559196 -3.86151e-16)
(-1.32001 0.456008 -3.73808e-16)
(-1.42921 0.317704 1.42325e-19)
(-1.49376 0.160165 7.87236e-16)
(-1.52624 0.00191182 -1.27351e-15)
(-1.52904 -0.146686 7.97263e-16)
(-1.51969 -0.286254 0)
(-1.47351 -0.412679 0)
(-1.39433 -0.510702 0)
(-1.27318 -0.553396 7.86335e-16)
(-1.07424 -0.519596 -9.35752e-16)
(-0.794107 -0.433036 0)
(-0.493604 -0.382487 0)
(-0.23885 -0.388517 -4.09826e-15)
(-0.0271898 -0.181412 -3.3072e-20)
(-0.0543289 -0.867845 0)
(-0.234247 -0.685375 0)
(-0.372534 -0.380736 2.18418e-16)
(-0.484409 -0.0344426 -2.50474e-16)
(-0.582148 0.276337 -3.39016e-16)
(-0.666195 0.521082 5.18135e-16)
(-0.746879 0.689148 -4.34922e-16)
(-0.849159 0.785251 1.92879e-16)
(-0.982944 0.821336 0)
(-1.13061 0.798343 -3.34736e-16)
(-1.25779 0.710276 3.28611e-16)
(-1.34026 0.563144 3.36448e-16)
(-1.36203 0.379124 -3.60602e-16)
(-1.36755 0.183842 -4.01868e-16)
(-1.3462 0.000830323 -4.54113e-16)
(-1.32201 -0.163917 8.53513e-16)
(-1.304 -0.320674 8.05157e-16)
(-1.28826 -0.472747 -7.67255e-16)
(-1.27835 -0.618515 0)
(-1.2776 -0.741838 -7.4364e-16)
(-1.2099 -0.812404 1.57945e-15)
(-1.07193 -0.807147 -9.30698e-16)
(-0.747959 -0.733622 0)
(-0.304987 -0.59398 2.20224e-15)
(0.0164936 -0.198496 -6.31604e-15)
(-0.0637393 -0.605851 1.16974e-16)
(-0.278517 -0.434286 1.13983e-16)
(-0.457462 -0.155643 -2.43396e-16)
(-0.602951 0.144033 3.77189e-16)
(-0.715464 0.418408 -1.53595e-19)
(-0.808964 0.646603 -2.1271e-16)
(-0.89666 0.814438 1.83479e-16)
(-0.989312 0.915826 1.66219e-16)
(-1.08386 0.946123 -3.14116e-16)
(-1.16343 0.902178 3.0842e-16)
(-1.202 0.768608 -3.18112e-16)
(-1.21072 0.574571 0)
(-1.16081 0.349681 -3.99116e-16)
(-1.08432 0.135154 9.71319e-16)
(-1.03117 -0.0501414 -5.44064e-16)
(-1.00374 -0.215972 1.02629e-15)
(-0.979434 -0.373661 -9.70474e-16)
(-0.96178 -0.527052 0)
(-0.960629 -0.681236 0)
(-0.990065 -0.830285 8.39876e-16)
(-1.04588 -0.948523 2.04813e-19)
(-1.09437 -1.0084 -8.64972e-16)
(-0.830318 -1.00582 0)
(-0.346079 -0.82866 0)
(0.132577 -0.226587 -4.72583e-15)
(-0.0751994 -0.356389 0)
(-0.307564 -0.175185 0)
(-0.509161 0.074221 0)
(-0.664881 0.32674 0)
(-0.783309 0.562543 0)
(-0.873135 0.763221 0)
(-0.944911 0.911672 0)
(-1.00342 0.99438 0)
(-1.04492 0.999098 3.09121e-16)
(-1.07129 0.912536 -3.14774e-16)
(-1.0522 0.735002 0)
(-0.98226 0.490272 0)
(-0.890851 0.228843 0)
(-0.828752 0.0104464 0)
(-0.80586 -0.157583 0)
(-0.784143 -0.311556 0)
(-0.760715 -0.458617 -1.14738e-15)
(-0.739487 -0.597875 2.17373e-15)
(-0.72607 -0.734986 -2.06159e-15)
(-0.741724 -0.867673 9.7821e-16)
(-0.808496 -0.98052 9.38501e-16)
(-0.875114 -1.05951 -9.17864e-16)
(-0.751828 -1.09641 -9.49014e-16)
(-0.328585 -0.976851 1.21145e-15)
(0.226709 -0.0873799 -3.95566e-15)
(-0.0832103 -0.13919 0)
(-0.308008 0.0566278 0)
(-0.487842 0.274998 1.99141e-16)
(-0.633571 0.485351 -1.41446e-16)
(-0.739832 0.682511 0)
(-0.814321 0.850841 1.93611e-16)
(-0.863211 0.971668 -3.50291e-16)
(-0.890979 1.01965 1.65997e-16)
(-0.900417 1.00846 3.28224e-16)
(-0.876107 0.868034 -3.47187e-16)
(-0.814187 0.638445 -3.97247e-16)
(-0.719601 0.346874 1.0113e-15)
(-0.646417 0.0825294 -7.13689e-16)
(-0.627025 -0.0971035 -8.43427e-16)
(-0.611402 -0.245656 -7.71594e-16)
(-0.587675 -0.395254 1.41218e-15)
(-0.566927 -0.531991 0)
(-0.547306 -0.658497 1.24531e-15)
(-0.530109 -0.778124 -1.18146e-15)
(-0.528603 -0.891909 0)
(-0.578241 -0.984661 1.07156e-15)
(-0.667145 -1.04082 -2.03605e-15)
(-0.570941 -1.10147 9.61992e-16)
(-0.275447 -1.03144 1.09341e-15)
(0.292832 0.052329 -6.84253e-15)
(-0.0745376 0.0308199 3.38768e-16)
(-0.26148 0.243955 1.43034e-16)
(-0.407929 0.435189 -1.82726e-16)
(-0.525281 0.608579 2.80529e-16)
(-0.607397 0.770763 -4.66724e-16)
(-0.65837 0.906734 2.05324e-16)
(-0.682568 0.995509 0)
(-0.685422 1.01723 3.65735e-16)
(-0.666958 0.972357 -3.72292e-16)
(-0.617673 0.788796 -4.11407e-16)
(-0.539493 0.514133 5.06209e-16)
(-0.452744 0.203654 0)
(-0.413651 -0.0192766 1.11329e-15)
(-0.404808 -0.161342 -1.0815e-15)
(-0.379529 -0.314395 1.88516e-15)
(-0.353115 -0.460976 1.25183e-18)
(-0.333714 -0.590049 -3.11555e-15)
(-0.321412 -0.704697 1.45866e-15)
(-0.31312 -0.807912 -1.37159e-15)
(-0.310034 -0.904202 -1.45964e-18)
(-0.349681 -0.987376 2.45359e-15)
(-0.447993 -1.02878 -1.15924e-15)
(-0.352639 -1.10177 0)
(-0.219501 -1.09327 0)
(0.20889 0.0911538 0)
(-0.0403859 0.149289 0)
(-0.184348 0.383423 0)
(-0.288078 0.549915 0)
(-0.371014 0.694011 0)
(-0.423429 0.827071 0)
(-0.44729 0.935767 0)
(-0.445839 0.995374 -2.14778e-16)
(-0.425813 0.999319 2.12882e-16)
(-0.385552 0.919008 4.4956e-16)
(-0.320998 0.706107 -5.28657e-16)
(-0.237408 0.404653 -7.26815e-16)
(-0.156449 0.103029 1.28585e-15)
(-0.129418 -0.0716982 0)
(-0.130646 -0.210907 -1.57744e-15)
(-0.107899 -0.374066 1.29325e-15)
(-0.084873 -0.518267 0)
(-0.0695283 -0.641742 0)
(-0.0657326 -0.74596 1.62374e-15)
(-0.0710883 -0.834709 -2.81359e-15)
(-0.0807663 -0.910081 1.27004e-15)
(-0.123129 -0.978043 1.19055e-15)
(-0.218021 -1.0184 -2.28114e-15)
(-0.14988 -1.09553 1.0479e-15)
(-0.191652 -1.19633 0)
(0.00530115 -0.537385 -2.95559e-15)
(-0.00334805 0.223387 0)
(-0.0896909 0.470357 0)
(-0.148084 0.619884 1.91008e-16)
(-0.195942 0.740273 -1.62102e-16)
(-0.217465 0.847887 0)
(-0.21225 0.929497 2.65193e-16)
(-0.182919 0.966119 -5.15702e-16)
(-0.136488 0.945829 2.65373e-16)
(-0.0733562 0.831411 5.96149e-16)
(0.00140195 0.602886 -7.74905e-16)
(0.0805878 0.29373 0)
(0.158525 -0.00544697 3.96195e-15)
(0.191353 -0.12862 -3.11707e-15)
(0.185155 -0.279487 -1.59136e-15)
(0.189207 -0.43449 -1.03917e-15)
(0.202775 -0.574513 1.59031e-15)
(0.21241 -0.689189 0)
(0.208651 -0.782105 1.17905e-15)
(0.191059 -0.855753 -1.08517e-15)
(0.163033 -0.909767 0)
(0.107528 -0.948866 0)
(0.00775036 -0.964306 0)
(0.0109338 -1.00962 0)
(-0.195044 -1.23329 1.05985e-15)
(-0.327098 -0.89814 -4.89223e-15)
(0.0395539 0.244729 0)
(0.0117617 0.505429 0)
(-0.00239932 0.64491 0)
(-0.0196933 0.749179 0)
(-0.013452 0.837607 0)
(0.0191628 0.899221 0)
(0.0752249 0.917552 0)
(0.146842 0.883294 0)
(0.232743 0.766437 0)
(0.321728 0.560444 0)
(0.403462 0.294418 0)
(0.469065 0.0429828 0)
(0.494104 -0.15797 0)
(0.493994 -0.34154 0)
(0.496773 -0.503432 0)
(0.508443 -0.635312 0)
(0.514492 -0.737017 0)
(0.50403 -0.813166 0)
(0.476331 -0.867469 0)
(0.434705 -0.901597 0)
(0.371564 -0.906256 0)
(0.272754 -0.875987 0)
(0.197543 -0.835167 0)
(-0.0812159 -0.891145 0)
(-0.501005 -0.56361 0)
(0.0633211 0.207794 0)
(0.111216 0.488828 0)
(0.142647 0.638954 0)
(0.152829 0.728256 0)
(0.177747 0.79272 0)
(0.23061 0.832422 0)
(0.309839 0.833007 0)
(0.405094 0.784713 0)
(0.511981 0.67008 0)
(0.617572 0.486673 0)
(0.70891 0.255428 0)
(0.774462 0.0147676 0)
(0.803851 -0.19934 0)
(0.81168 -0.380872 0)
(0.817779 -0.52553 0)
(0.825094 -0.638008 0)
(0.823549 -0.722229 0)
(0.806267 -0.782049 0)
(0.773585 -0.820964 0)
(0.729515 -0.838815 0)
(0.676783 -0.830122 0)
(0.609173 -0.786389 0)
(0.531882 -0.706547 0)
(0.504565 -0.656905 0)
(0.484128 -0.765005 0)
(0.0523223 0.145278 0)
(0.180975 0.40557 0)
(0.272451 0.599574 0)
(0.314025 0.692851 0)
(0.348372 0.732778 0)
(0.409064 0.744201 0)
(0.5013 0.721604 0)
(0.614602 0.657063 0)
(0.739101 0.539833 0)
(0.861377 0.369772 0)
(0.968059 0.161466 0)
(1.04762 -0.0625954 0)
(1.09336 -0.263119 0)
(1.11532 -0.42917 0)
(1.12669 -0.556892 0)
(1.13118 -0.652982 0)
(1.12508 -0.722608 0)
(1.10513 -0.768945 0)
(1.07179 -0.794935 0)
(1.02869 -0.801252 0)
(0.978122 -0.783059 0)
(0.919598 -0.737898 0)
(0.855345 -0.674582 0)
(0.799254 -0.590046 0)
(0.785477 -0.433527 0)
(0.0218535 0.0979695 0)
(0.181997 0.273724 0)
(0.353512 0.505912 0)
(0.449015 0.641277 0)
(0.498653 0.676567 0)
(0.555454 0.658912 0)
(0.644463 0.606686 0)
(0.76192 0.520398 0)
(0.895371 0.395124 0)
(1.0303 0.23203 0)
(1.15246 0.0417482 0)
(1.24946 -0.155046 0)
(1.31719 -0.330727 0)
(1.35984 -0.472988 0)
(1.38578 -0.581012 0)
(1.39905 -0.659757 0)
(1.39951 -0.714029 0)
(1.38579 -0.746923 0)
(1.35872 -0.761372 0)
(1.32226 -0.75832 0)
(1.27959 -0.733979 0)
(1.23041 -0.685311 0)
(1.17946 -0.619494 0)
(1.14226 -0.54853 0)
(1.13469 -0.465475 0)
(0.0334935 0.0107056 0)
(0.117919 0.0935742 0)
(0.337108 0.336919 0)
(0.512378 0.543396 0)
(0.606473 0.614775 0)
(0.671987 0.587192 0)
(0.752206 0.505972 0)
(0.859813 0.390572 0)
(0.988871 0.247065 0)
(1.12662 0.0803785 0)
(1.25922 -0.0984739 0)
(1.37607 -0.27079 0)
(1.47087 -0.419212 0)
(1.54333 -0.535288 0)
(1.5949 -0.620563 0)
(1.62848 -0.67941 0)
(1.64526 -0.716453 0)
(1.64463 -0.735029 0)
(1.6286 -0.737966 0)
(1.60189 -0.726244 0)
(1.56815 -0.696697 0)
(1.52822 -0.647739 0)
(1.48794 -0.587667 0)
(1.46209 -0.525425 0)
(1.45995 -0.454664 0)
(0.07958 -0.128029 0)
(0.137694 -0.0830817 0)
(0.241309 0.106288 0)
(0.449067 0.364481 0)
(0.611032 0.50671 0)
(0.717274 0.505572 0)
(0.810463 0.413761 0)
(0.915636 0.273128 0)
(1.03909 0.104611 0)
(1.17709 -0.0771339 0)
(1.3204 -0.253212 0)
(1.4589 -0.406258 0)
(1.58304 -0.527803 0)
(1.68476 -0.617157 0)
(1.76297 -0.677543 0)
(1.81994 -0.714456 0)
(1.85759 -0.732422 0)
(1.87162 -0.734859 0)
(1.86793 -0.724816 0)
(1.85325 -0.703207 0)
(1.82988 -0.66741 0)
(1.79951 -0.617025 0)
(1.76834 -0.561495 0)
(1.74883 -0.509909 0)
(1.74658 -0.453661 0)
(0.0645279 -0.206213 0)
(0.104149 -0.138725 0)
(0.112422 -0.0313656 0)
(0.242791 0.14963 0)
(0.438657 0.324728 0)
(0.602055 0.369641 0)
(0.736398 0.293511 0)
(0.86147 0.14497 0)
(0.988321 -0.0420724 0)
(1.12007 -0.239024 0)
(1.26394 -0.416481 0)
(1.41734 -0.556763 0)
(1.56422 -0.657829 0)
(1.69508 -0.723 0)
(1.80387 -0.758916 0)
(1.89012 -0.772565 0)
(1.94833 -0.769461 0)
(1.98627 -0.753768 0)
(2.01064 -0.728238 0)
(2.02026 -0.694094 0)
(2.01779 -0.649561 0)
(2.00419 -0.595774 0)
(1.98657 -0.543119 0)
(1.97654 -0.498004 0)
(1.97718 -0.449029 0)
(0.000360989 -0.196671 0)
(-0.0617538 -0.102874 0)
(-0.0953277 0.0234296 0)
(-0.0629278 0.0919025 0)
(0.0471826 0.169178 0)
(0.200033 0.181809 0)
(0.360361 0.11641 0)
(0.484664 -0.0254918 0)
(0.557626 -0.237942 0)
(0.665127 -0.462759 0)
(0.825362 -0.648888 0)
(1.0162 -0.779663 0)
(1.21398 -0.858253 0)
(1.3949 -0.895006 0)
(1.56055 -0.90006 0)
(1.7009 -0.882741 0)
(1.82087 -0.850852 0)
(1.91008 -0.809709 0)
(1.97576 -0.762595 0)
(2.02232 -0.710848 0)
(2.04825 -0.653432 0)
(2.06814 -0.592229 0)
(2.0817 -0.537636 0)
(2.09593 -0.494529 0)
(2.10994 -0.446453 0)
(-0.0889644 -0.0499085 0)
(-0.28744 0.0191232 0)
(-0.432258 0.0783105 0)
(-0.488958 0.0875317 0)
(-0.481116 0.0531792 0)
(-0.439772 -0.0416462 0)
(-0.397696 -0.199412 0)
(-0.324169 -0.376464 0)
(-0.128583 -0.560616 0)
(0.065785 -0.771125 0)
(0.288591 -0.939707 0)
(0.510218 -1.04847 0)
(0.721519 -1.10481 0)
(0.922835 -1.11945 0)
(1.11483 -1.10123 0)
(1.29956 -1.05798 0)
(1.47215 -0.99709 0)
(1.62645 -0.925128 0)
(1.75812 -0.850072 0)
(1.86879 -0.774137 0)
(1.95056 -0.697115 0)
(2.00986 -0.622082 0)
(2.05524 -0.559913 0)
(2.0941 -0.510666 0)
(2.12348 -0.454611 0)
(-0.179988 0.138738 0)
(-0.459247 0.175926 0)
(-0.655687 0.178911 0)
(-0.746798 0.151935 0)
(-0.782691 0.0857678 0)
(-0.682216 -0.0194944 0)
(-0.54249 -0.172834 0)
(-0.369361 -0.382634 0)
(-0.189621 -0.621409 0)
(-0.0136924 -0.866995 0)
(0.157371 -1.06625 0)
(0.321703 -1.19346 0)
(0.47723 -1.2634 0)
(0.627931 -1.29057 0)
(0.781202 -1.28222 0)
(0.940765 -1.24222 0)
(1.10529 -1.17564 0)
(1.27151 -1.09035 0)
(1.43263 -0.99492 0)
(1.5808 -0.894378 0)
(1.71285 -0.792859 0)
(1.8235 -0.698975 0)
(1.91647 -0.622252 0)
(1.99391 -0.555353 0)
(2.05757 -0.483422 0)
(-0.166522 0.346283 0)
(-0.428437 0.362975 0)
(-0.621072 0.333225 0)
(-0.726771 0.275878 0)
(-0.74906 0.167337 0)
(-0.683395 -0.00618739 0)
(-0.563966 -0.230229 0)
(-0.407285 -0.485287 0)
(-0.233796 -0.74937 0)
(-0.0583403 -0.996079 0)
(0.107246 -1.19086 0)
(0.259016 -1.31009 0)
(0.391501 -1.37614 0)
(0.511502 -1.40794 0)
(0.627504 -1.41083 0)
(0.747726 -1.38495 0)
(0.876983 -1.33124 0)
(1.01571 -1.25307 0)
(1.16179 -1.1557 0)
(1.30995 -1.0446 0)
(1.45331 -0.927275 0)
(1.58541 -0.817944 0)
(1.70534 -0.723201 0)
(1.81442 -0.632883 0)
(1.89509 -0.533577 0)
(-0.134634 0.57098 0)
(-0.359435 0.539283 0)
(-0.541075 0.444905 0)
(-0.652664 0.310915 0)
(-0.696056 0.125459 0)
(-0.670239 -0.108355 0)
(-0.584095 -0.373728 0)
(-0.456435 -0.657203 0)
(-0.301861 -0.934053 0)
(-0.136304 -1.17693 0)
(0.0299018 -1.35755 0)
(0.188034 -1.45589 0)
(0.329249 -1.49867 0)
(0.451807 -1.51441 0)
(0.561465 -1.51134 0)
(0.665204 -1.48919 0)
(0.769577 -1.44575 0)
(0.879668 -1.37939 0)
(0.99874 -1.29042 0)
(1.12614 -1.18271 0)
(1.25718 -1.06632 0)
(1.38858 -0.952999 0)
(1.516 -0.84345 0)
(1.62227 -0.725193 0)
(1.68194 -0.588776 0)
(-0.10682 0.792821 0)
(-0.296038 0.708961 0)
(-0.463175 0.564183 0)
(-0.587952 0.384316 0)
(-0.657563 0.159868 0)
(-0.666394 -0.125801 0)
(-0.606707 -0.451969 0)
(-0.50036 -0.783262 0)
(-0.358338 -1.09136 0)
(-0.19916 -1.3465 0)
(-0.0353395 -1.52384 0)
(0.123809 -1.61145 0)
(0.271426 -1.63497 0)
(0.40374 -1.63121 0)
(0.520454 -1.61309 0)
(0.624661 -1.58323 0)
(0.721454 -1.53959 0)
(0.817184 -1.4786 0)
(0.917372 -1.39826 0)
(1.02383 -1.30066 0)
(1.13573 -1.19235 0)
(1.24943 -1.07842 0)
(1.3492 -0.949957 0)
(1.41295 -0.795693 0)
(1.44954 -0.609633 0)
(-0.0848789 0.980845 0)
(-0.245596 0.875743 0)
(-0.404363 0.704492 0)
(-0.538461 0.504473 0)
(-0.628362 0.245927 0)
(-0.662468 -0.0932798 0)
(-0.62702 -0.490668 0)
(-0.535892 -0.880121 0)
(-0.400602 -1.22895 0)
(-0.240403 -1.50457 0)
(-0.0755564 -1.68329 0)
(0.083531 -1.7659 0)
(0.233971 -1.77724 0)
(0.371343 -1.75836 0)
(0.493945 -1.72522 0)
(0.602309 -1.68349 0)
(0.699819 -1.63286 0)
(0.791469 -1.57027 0)
(0.881882 -1.4933 0)
(0.972404 -1.40087 0)
(1.06181 -1.29396 0)
(1.1408 -1.17096 0)
(1.1963 -1.01588 0)
(1.2496 -0.820262 0)
(1.36052 -0.710163 0)
(-0.0682532 1.14398 0)
(-0.207928 1.03729 0)
(-0.35696 0.855852 0)
(-0.496212 0.641862 0)
(-0.601715 0.353641 0)
(-0.650439 -0.033835 0)
(-0.638251 -0.507 0)
(-0.558397 -0.963319 0)
(-0.426501 -1.36088 0)
(-0.262446 -1.66208 0)
(-0.0919832 -1.84301 0)
(0.0701279 -1.91817 0)
(0.221334 -1.91993 0)
(0.360715 -1.88914 0)
(0.485958 -1.84318 0)
(0.597217 -1.7894 0)
(0.697038 -1.72903 0)
(0.788699 -1.65985 0)
(0.874842 -1.57862 0)
(0.955115 -1.4822 0)
(1.02916 -1.36925 0)
(1.09044 -1.23455 0)
(1.15933 -1.07871 0)
(1.29315 -0.96457 0)
(1.57427 -1.00674 0)
(-0.0549148 1.28578 0)
(-0.17549 1.19002 0)
(-0.313087 1.00773 0)
(-0.447936 0.787611 0)
(-0.559426 0.481849 0)
(-0.612683 0.0579157 0)
(-0.629293 -0.49312 0)
(-0.557468 -1.03038 0)
(-0.427965 -1.48767 0)
(-0.259134 -1.82096 0)
(-0.0838716 -2.00554 0)
(0.0804804 -2.07077 0)
(0.232509 -2.06282 0)
(0.371742 -2.0209 0)
(0.497439 -1.96307 0)
(0.610334 -1.89763 0)
(0.712788 -1.8266 0)
(0.807598 -1.74821 0)
(0.896962 -1.66005 0)
(0.981956 -1.56059 0)
(1.06837 -1.45014 0)
(1.16937 -1.32823 0)
(1.32183 -1.24146 0)
(1.57432 -1.25054 0)
(1.90042 -1.37792 0)
(-0.0423041 1.40422 0)
(-0.141994 1.32843 0)
(-0.261542 1.15342 0)
(-0.38443 0.937932 0)
(-0.49588 0.629493 0)
(-0.550966 0.186057 0)
(-0.580741 -0.433094 0)
(-0.517724 -1.07339 0)
(-0.392272 -1.6039 0)
(-0.222683 -1.97763 0)
(-0.0466611 -2.16886 0)
(0.116354 -2.22304 0)
(0.266106 -2.20552 0)
(0.403058 -2.15252 0)
(0.527458 -2.0831 0)
(0.641102 -2.00685 0)
(0.74689 -1.92672 0)
(0.848255 -1.84254 0)
(0.949387 -1.75398 0)
(1.05685 -1.66176 0)
(1.181 -1.57018 0)
(1.34286 -1.50015 0)
(1.5632 -1.4848 0)
(1.8251 -1.54271 0)
(2.06747 -1.64243 0)
(-0.0277902 1.49623 0)
(-0.100239 1.44761 0)
(-0.194631 1.28377 0)
(-0.302213 1.07793 0)
(-0.403115 0.788526 0)
(-0.437897 0.346207 0)
(-0.466522 -0.30347 0)
(-0.421295 -1.08203 0)
(-0.305329 -1.70188 0)
(-0.143618 -2.12549 0)
(0.0238424 -2.32779 0)
(0.179296 -2.37264 0)
(0.322867 -2.34549 0)
(0.454272 -2.28146 0)
(0.574846 -2.20105 0)
(0.687287 -2.11603 0)
(0.794874 -2.03148 0)
(0.902172 -1.94887 0)
(1.01657 -1.86759 0)
(1.14605 -1.79027 0)
(1.29919 -1.72733 0)
(1.48365 -1.69445 0)
(1.68858 -1.70287 0)
(1.88015 -1.74244 0)
(2.03364 -1.79464 0)
(-0.00961423 1.55499 0)
(-0.0484369 1.53923 0)
(-0.112832 1.3861 0)
(-0.193616 1.19586 0)
(-0.281793 0.941749 0)
(-0.263205 0.569917 0)
(-0.275561 -0.0542017 0)
(-0.250956 -1.04121 0)
(-0.155245 -1.77103 0)
(-0.0169922 -2.25483 0)
(0.12956 -2.4757 0)
(0.271012 -2.5139 0)
(0.402583 -2.4779 0)
(0.524178 -2.40331 0)
(0.637155 -2.31328 0)
(0.74389 -2.22271 0)
(0.848027 -2.13841 0)
(0.95569 -2.06087 0)
(1.0732 -1.98961 0)
(1.20496 -1.92862 0)
(1.35297 -1.88457 0)
(1.51122 -1.86236 0)
(1.66475 -1.86154 0)
(1.80311 -1.87898 0)
(1.92834 -1.91349 0)
(0.0119018 1.57229 0)
(0.0131134 1.59474 0)
(-0.0125467 1.44952 0)
(-0.0648998 1.26824 0)
(-0.136688 1.06421 0)
(0.0268831 0.833235 0)
(-0.00633258 0.321349 0)
(-0.0103681 -0.949469 0)
(0.0564138 -1.80509 0)
(0.154413 -2.35277 0)
(0.27087 -2.6015 0)
(0.390018 -2.63933 0)
(0.503396 -2.59617 0)
(0.60998 -2.51256 0)
(0.709925 -2.41539 0)
(0.805251 -2.32231 0)
(0.900501 -2.23953 0)
(1.00053 -2.16702 0)
(1.10806 -2.10528 0)
(1.22451 -2.05524 0)
(1.34863 -2.01805 0)
(1.47603 -1.99573 0)
(1.60378 -1.99114 0)
(1.73168 -2.00652 0)
(1.85958 -2.04125 0)
(0.0381453 1.5414 0)
(0.0809816 1.6105 0)
(0.0943721 1.46376 0)
(0.0863799 1.2783 0)
(0.00760009 1.08136 0)
(0.284919 0.923724 0)
(0.232825 0.584255 0)
(0.246887 -0.8588 0)
(0.301765 -1.8091 0)
(0.359505 -2.40772 0)
(0.44107 -2.69835 0)
(0.531509 -2.74056 0)
(0.620835 -2.69368 0)
(0.70655 -2.6044 0)
(0.78825 -2.50338 0)
(0.868618 -2.40942 0)
(0.951521 -2.32865 0)
(1.03915 -2.2617 0)
(1.13306 -2.20718 0)
(1.23445 -2.16357 0)
(1.34318 -2.13189 0)
(1.45876 -2.11529 0)
(1.57979 -2.11628 0)
(1.70333 -2.13462 0)
(1.82499 -2.1674 0)
(0.066002 1.45818 0)
(0.149721 1.55631 0)
(0.2041 1.42453 0)
(0.233393 1.22316 0)
(0.16793 0.991024 0)
(0.33163 0.465001 0)
(0.367305 -0.0203625 0)
(0.476471 -0.954806 0)
(0.543492 -1.82011 0)
(0.576352 -2.43837 0)
(0.626541 -2.76703 0)
(0.685566 -2.81136 0)
(0.746217 -2.76576 0)
(0.807088 -2.67532 0)
(0.868079 -2.57378 0)
(0.932198 -2.48147 0)
(1.00177 -2.40533 0)
(1.0781 -2.34474 0)
(1.16237 -2.29676 0)
(1.25494 -2.26049 0)
(1.35518 -2.23709 0)
(1.46144 -2.22766 0)
(1.57105 -2.23215 0)
(1.68041 -2.24938 0)
(1.7869 -2.27794 0)
(0.0929166 1.3205 0)
(0.215654 1.46962 0)
(0.305687 1.33199 0)
(0.368665 1.10597 0)
(0.349137 0.812319 0)
(0.464464 0.131013 0)
(0.536087 -0.451257 0)
(0.683034 -1.13709 0)
(0.755071 -1.8565 0)
(0.77876 -2.45902 0)
(0.807812 -2.80055 0)
(0.837786 -2.84964 0)
(0.869292 -2.81029 0)
(0.904196 -2.72322 0)
(0.944077 -2.62514 0)
(0.991846 -2.53907 0)
(1.04892 -2.47078 0)
(1.11549 -2.418 0)
(1.19083 -2.378 0)
(1.27361 -2.34974 0)
(1.3623 -2.33282 0)
(1.45509 -2.32699 0)
(1.54981 -2.33222 0)
(1.64497 -2.34848 0)
(1.73956 -2.37534 0)
(0.116127 1.13041 0)
(0.271664 1.32185 0)
(0.397443 1.1942 0)
(0.475492 0.95199 0)
(0.502003 0.606785 0)
(0.598874 -0.0240755 0)
(0.704989 -0.640815 0)
(0.847121 -1.26502 0)
(0.913343 -1.90608 0)
(0.944989 -2.48213 0)
(0.966244 -2.82204 0)
(0.974057 -2.85768 0)
(0.979275 -2.83066 0)
(0.989774 -2.74822 0)
(1.00973 -2.65841 0)
(1.0424 -2.58309 0)
(1.08779 -2.52544 0)
(1.14394 -2.48225 0)
(1.20858 -2.45052 0)
(1.27995 -2.4286 0)
(1.35663 -2.41597 0)
(1.43726 -2.41297 0)
(1.52081 -2.42008 0)
(1.60613 -2.43739 0)
(1.69216 -2.46461 0)
(0.134535 0.893725 0)
(0.31604 1.13495 0)
(0.474204 1.03134 0)
(0.56527 0.788639 0)
(0.623549 0.4305 0)
(0.721173 -0.117873 0)
(0.843898 -0.716136 0)
(0.950142 -1.3469 0)
(1.01738 -1.97009 0)
(1.07255 -2.51727 0)
(1.09215 -2.83281 0)
(1.08272 -2.85868 0)
(1.06681 -2.82897 0)
(1.05625 -2.75293 0)
(1.06 -2.67585 0)
(1.08069 -2.61495 0)
(1.11601 -2.56995 0)
(1.16247 -2.5368 0)
(1.21741 -2.51261 0)
(1.27906 -2.49638 0)
(1.34614 -2.4884 0)
(1.4176 -2.48921 0)
(1.49229 -2.4991 0)
(1.5691 -2.51813 0)
(1.64689 -2.54596 0)
(0.145194 0.617681 0)
(0.34703 0.918238 0)
(0.533796 0.858717 0)
(0.656231 0.639288 0)
(0.741756 0.297487 0)
(0.849373 -0.173848 0)
(0.937901 -0.761341 0)
(1.00015 -1.43377 0)
(1.08987 -2.06148 0)
(1.17013 -2.56763 0)
(1.18316 -2.83149 0)
(1.15683 -2.84787 0)
(1.12369 -2.8077 0)
(1.09919 -2.74161 0)
(1.0935 -2.68214 0)
(1.10695 -2.63796 0)
(1.13526 -2.60606 0)
(1.17436 -2.58255 0)
(1.22156 -2.56569 0)
(1.2752 -2.55548 0)
(1.3341 -2.55246 0)
(1.39718 -2.55709 0)
(1.46342 -2.56969 0)
(1.53168 -2.59028 0)
(1.60102 -2.61886 0)