/*--------------------------------*- C++ -*----------------------------------*\
  =========                 |
  \\      /  F ield         | OpenFOAM: The Open Source CFD Toolbox
   \\    /   O peration     | Website:  https://openfoam.org
    \\  /    A nd           | Version:  13
     \\/     M anipulation  |
\*---------------------------------------------------------------------------*/
FoamFile
{
    format      ascii;
    class       volScalarField;
    location    "20";
    object      p;
}
// * * * * * * * * * * * * * * * * * * * * * * * * * * * * * * * * * * * * * //

dimensions      [0 2 -2 0 0 0 0];

internalField   nonuniform List<scalar> 
6440
(
4.9489e-05
4.92116e-05
4.8653e-05
4.78139e-05
4.66943e-05
4.53167e-05
4.37134e-05
4.19593e-05
4.01183e-05
3.82635e-05
3.64757e-05
3.48383e-05
3.34326e-05
3.2331e-05
3.15908e-05
3.12472e-05
3.12858e-05
3.17364e-05
3.25533e-05
3.37011e-05
3.50835e-05
3.65877e-05
3.8083e-05
3.94446e-05
4.04903e-05
5.08655e-05
5.06245e-05
5.0133e-05
4.93861e-05
4.83901e-05
4.71665e-05
4.57408e-05
4.41435e-05
4.24435e-05
4.07006e-05
3.89826e-05
3.73633e-05
3.59184e-05
3.47175e-05
3.3818e-05
3.33159e-05
3.32471e-05
3.36289e-05
3.44495e-05
3.56671e-05
3.72079e-05
3.89836e-05
4.08793e-05
4.27099e-05
4.42755e-05
5.29887e-05
5.27486e-05
5.22792e-05
5.15678e-05
5.06198e-05
4.94523e-05
4.80833e-05
4.65218e-05
4.48197e-05
4.30397e-05
4.12464e-05
3.95152e-05
3.79313e-05
3.65857e-05
3.55708e-05
3.49719e-05
3.48527e-05
3.52505e-05
3.61703e-05
3.75814e-05
3.94161e-05
4.15947e-05
4.40201e-05
4.64561e-05
4.85731e-05
5.55883e-05
5.53303e-05
5.48456e-05
5.41178e-05
5.31512e-05
5.19591e-05
5.05572e-05
4.89652e-05
4.71857e-05
4.52997e-05
4.33651e-05
4.1461e-05
3.96833e-05
3.81384e-05
3.69381e-05
3.61877e-05
3.59739e-05
3.63555e-05
3.73556e-05
3.89528e-05
4.10908e-05
4.37265e-05
4.67646e-05
4.98443e-05
5.24862e-05
5.85798e-05
5.82969e-05
5.77769e-05
5.70018e-05
5.59796e-05
5.47267e-05
5.32609e-05
5.16046e-05
4.9778e-05
4.77682e-05
4.56843e-05
4.35922e-05
4.15873e-05
3.97871e-05
3.83271e-05
3.73368e-05
3.69294e-05
3.7195e-05
3.81846e-05
3.98986e-05
4.22964e-05
4.5346e-05
4.89591e-05
5.26619e-05
5.58328e-05
6.1934e-05
6.16196e-05
6.10531e-05
6.02194e-05
5.91295e-05
5.78024e-05
5.62594e-05
5.45232e-05
5.26193e-05
5.05656e-05
4.8338e-05
4.60731e-05
4.38552e-05
4.17956e-05
4.00303e-05
3.87097e-05
3.79934e-05
3.80215e-05
3.88833e-05
4.06135e-05
4.31875e-05
4.65744e-05
5.0673e-05
5.49777e-05
5.86638e-05
6.56586e-05
6.53095e-05
6.46908e-05
6.37865e-05
6.26134e-05
6.11957e-05
5.95601e-05
5.7734e-05
5.57436e-05
5.36138e-05
5.13517e-05
4.89393e-05
4.65277e-05
4.4219e-05
4.21442e-05
4.04657e-05
3.93658e-05
3.9034e-05
3.96327e-05
4.12485e-05
4.38849e-05
4.75127e-05
5.2024e-05
5.68988e-05
6.10799e-05
6.97688e-05
6.93822e-05
6.87023e-05
6.77127e-05
6.64372e-05
6.4908e-05
6.31593e-05
6.12257e-05
5.91386e-05
5.69221e-05
5.45936e-05
5.21378e-05
4.95876e-05
4.70719e-05
4.47146e-05
4.26769e-05
4.11593e-05
4.03864e-05
4.05831e-05
4.19321e-05
4.44977e-05
4.82491e-05
5.309e-05
5.84743e-05
6.3127e-05
7.42779e-05
7.38516e-05
7.31029e-05
7.20165e-05
7.06231e-05
6.89603e-05
6.707e-05
6.49964e-05
6.2781e-05
6.04582e-05
5.80535e-05
5.55776e-05
5.29653e-05
5.03213e-05
4.77451e-05
4.53871e-05
4.345e-05
4.21872e-05
4.1878e-05
4.27927e-05
4.51236e-05
4.88666e-05
5.3943e-05
5.97784e-05
6.48725e-05
7.91968e-05
7.87312e-05
7.791e-05
7.67186e-05
7.51923e-05
7.33749e-05
7.13161e-05
6.90695e-05
6.66895e-05
6.42244e-05
6.17079e-05
5.91546e-05
5.65632e-05
5.38792e-05
5.11854e-05
4.85937e-05
4.62854e-05
4.4519e-05
4.3626e-05
4.39687e-05
4.58613e-05
4.94727e-05
5.46857e-05
6.08927e-05
6.64889e-05
8.45301e-05
8.40292e-05
8.31368e-05
8.18381e-05
8.01715e-05
7.81849e-05
7.59349e-05
7.34844e-05
7.08986e-05
6.82409e-05
6.55636e-05
6.2901e-05
6.02504e-05
5.75935e-05
5.49102e-05
5.22264e-05
4.96631e-05
4.74523e-05
4.59445e-05
4.55938e-05
4.68704e-05
5.0131e-05
5.54018e-05
6.1867e-05
6.79561e-05
9.02726e-05
8.97435e-05
8.87878e-05
8.73894e-05
8.55865e-05
8.34281e-05
8.09743e-05
7.82952e-05
7.54664e-05
7.25642e-05
6.96604e-05
6.68104e-05
6.40467e-05
6.13549e-05
5.87553e-05
5.61313e-05
5.34943e-05
5.09799e-05
4.89033e-05
4.7785e-05
4.82713e-05
5.09603e-05
5.60626e-05
6.27732e-05
6.93385e-05
9.64055e-05
9.58592e-05
9.48563e-05
9.33782e-05
9.14594e-05
8.91458e-05
8.64972e-05
8.35838e-05
8.04846e-05
7.72865e-05
7.40768e-05
7.09429e-05
6.79559e-05
6.51566e-05
6.25363e-05
6.00755e-05
5.75707e-05
5.49754e-05
5.24749e-05
5.062e-05
5.01935e-05
5.2073e-05
5.67564e-05
6.36849e-05
7.06804e-05
0.000102893
0.000102345
0.00010132
9.97969e-05
9.78039e-05
9.53798e-05
9.25778e-05
8.94587e-05
8.60937e-05
8.25651e-05
7.89751e-05
7.54567e-05
7.21281e-05
6.91393e-05
6.64015e-05
6.38538e-05
6.14898e-05
5.90822e-05
5.64444e-05
5.41143e-05
5.27967e-05
5.3621e-05
5.75887e-05
6.44862e-05
7.18959e-05
0.000109681
0.000109149
0.000108135
0.000106616
0.000104611
0.000102148
9.9268e-05
9.60153e-05
9.24479e-05
8.8623e-05
8.46431e-05
8.07416e-05
7.70764e-05
7.36521e-05
7.05177e-05
6.76818e-05
6.51588e-05
6.28058e-05
6.03227e-05
5.78761e-05
5.59763e-05
5.57686e-05
5.86425e-05
6.5128e-05
7.29317e-05
0.000116695
0.000116198
0.000115234
0.000113775
0.000111833
0.000109423
0.00010657
0.000103297
9.96769e-05
9.57091e-05
9.15281e-05
8.7317e-05
8.31823e-05
7.91405e-05
7.53712e-05
7.19164e-05
6.88684e-05
6.60593e-05
6.3466e-05
6.1189e-05
5.91499e-05
5.81925e-05
5.99051e-05
6.55561e-05
7.3627e-05
0.00012384
0.000123401
0.000122524
0.000121188
0.000119391
0.000117123
0.00011445
0.000111342
0.000107833
0.000103968
9.99145e-05
9.56422e-05
9.11576e-05
8.65165e-05
8.18617e-05
7.73522e-05
7.3185e-05
6.94957e-05
6.63158e-05
6.35705e-05
6.14196e-05
6.0185e-05
6.08937e-05
6.53907e-05
7.32755e-05
0.000131009
0.000130643
0.00012988
0.000128707
0.000127158
0.00012519
0.000122823
0.000120071
0.000116971
0.000113596
0.000109797
0.000105602
0.000101043
9.61224e-05
9.09115e-05
8.54764e-05
7.9958e-05
7.46371e-05
6.9889e-05
6.59636e-05
6.27864e-05
6.08094e-05
6.03899e-05
6.25264e-05
6.93649e-05
0.000138078
0.000137779
0.000137185
0.000136263
0.000135004
0.000133401
0.000131467
0.000129276
0.000126847
0.000123971
0.00012065
0.000116887
0.000112643
0.000107902
0.000102597
9.67481e-05
9.04856e-05
8.38451e-05
7.69188e-05
7.00053e-05
6.37995e-05
5.89112e-05
5.55311e-05
5.35882e-05
5.74506e-05
0.000144946
0.000144737
0.000144314
0.00014363
0.000142683
0.000141477
0.000140125
0.000138451
0.000136394
0.00013402
0.000131292
0.000128175
0.00012462
0.000120577
0.000115973
0.000110664
0.000104422
9.74198e-05
8.95843e-05
8.03112e-05
6.9642e-05
5.84917e-05
4.72799e-05
3.44111e-05
2.27266e-05
0.000151545
0.000151408
0.00015109
0.000150564
0.000149836
0.000148921
0.000147718
0.00014629
0.000144597
0.000142622
0.000140334
0.000137693
0.000134647
0.000131132
0.000127065
0.000122356
0.000116897
0.000110196
0.00010194
9.21573e-05
8.02199e-05
6.51658e-05
4.4073e-05
8.5518e-06
-6.31493e-05
0.000158044
0.000157929
0.000157643
0.00015716
0.000156477
0.000155592
0.000154479
0.000153141
0.000151561
0.000149716
0.000147576
0.000145099
0.000142231
0.000138903
0.000135024
0.000130476
0.000125091
0.000118574
0.000110601
0.000100536
8.78412e-05
7.10377e-05
4.70566e-05
1.01615e-05
-4.7133e-05
0.000164433
0.00016433
0.000164062
0.000163601
0.000162945
0.000162089
0.000161024
0.000159742
0.000158229
0.000156465
0.000154418
0.000152048
0.000149301
0.000146106
0.000142368
0.000137962
0.000132711
0.000126364
0.00011859
0.000108896
9.6608e-05
8.05574e-05
5.90144e-05
2.99543e-05
-6.65178e-06
0.000170709
0.000170617
0.000170367
0.000169933
0.00016931
0.000168497
0.000167488
0.000166274
0.000164845
0.00016318
0.000161252
0.000159023
0.000156443
0.000153443
0.000149935
0.000145803
0.000140891
0.000134991
0.000127832
0.000119053
0.000108181
9.45935e-05
7.77597e-05
5.74779e-05
3.57288e-05
0.000176867
0.000176786
0.000176559
0.000176159
0.000175582
0.000174827
0.000173892
0.00017277
0.000171451
0.000169919
0.000168152
0.000166116
0.000163766
0.000161045
0.000157877
0.000154167
0.000149794
0.000144607
0.000138424
0.000131034
0.000122213
0.000111774
9.97568e-05
8.69429e-05
7.50098e-05
0.000182899
0.000182831
0.000182632
0.000182273
0.000181752
0.00018107
0.000180225
0.000179215
0.000178032
0.000176666
0.000175096
0.000173298
0.000171236
0.000168865
0.000166127
0.000162954
0.000159266
0.000154973
0.000149983
0.000144218
0.000137648
0.000130362
0.000122708
0.000115511
0.000110152
0.000188799
0.000188747
0.000188579
0.000188267
0.000187811
0.000187213
0.000186474
0.000185594
0.00018457
0.000183393
0.000182052
0.000180529
0.000178799
0.000176831
0.000174588
0.00017203
0.000169115
0.000165808
0.000162092
0.000157989
0.000153592
0.000149125
0.000145024
0.000142024
0.000141176
0.000194561
0.000194526
0.000194392
0.000194132
0.000193748
0.000193244
0.000192623
0.000191887
0.000191037
0.000190071
0.000188982
0.00018776
0.000186393
0.000184862
0.000183152
0.000181246
0.000179137
0.000176835
0.000174375
0.000171843
0.000169399
0.000167313
0.000166013
0.000166113
0.000168396
0.000200176
0.000200159
0.000200061
0.000199858
0.000199552
0.000199149
0.000198654
0.000198073
0.000197409
0.000196666
0.000195843
0.000194939
0.00019395
0.000192872
0.000191706
0.000190458
0.000189147
0.000187812
0.000186525
0.000185406
0.00018464
0.0001845
0.000185368
0.000187737
0.000192194
0.000205637
0.000205638
0.000205579
0.000205434
0.00020521
0.000204913
0.00020455
0.000204129
0.000203659
0.000203145
0.000202595
0.000202013
0.000201405
0.00020078
0.00020015
0.000199538
0.000198982
0.000198543
0.000198309
0.000198416
0.000199051
0.000200465
0.000202983
0.000206999
0.000212953
0.000210934
0.000210955
0.000210934
0.00021085
0.00021071
0.00021052
0.000210292
0.000210034
0.000209759
0.000209476
0.000209197
0.000208934
0.0002087
0.000208511
0.000208392
0.000208377
0.000208515
0.000208878
0.000209563
0.000210706
0.000212482
0.000215114
0.000218872
0.000224065
0.000231027
0.00021606
0.0002161
0.000216118
0.000216095
0.000216038
0.000215957
0.000215862
0.000215767
0.000215684
0.000215627
0.000215613
0.000215657
0.000215779
0.000216002
0.000216357
0.000216886
0.000217645
0.000218709
0.000220177
0.000222176
0.000224865
0.000228433
0.000233104
0.00023912
0.000246734
0.000221006
0.000221065
0.000221122
0.000221159
0.000221184
0.000221209
0.000221245
0.000221307
0.00022141
0.000221572
0.000221809
0.000222143
0.000222597
0.000223199
0.000223985
0.000225
0.000226302
0.000227966
0.000230086
0.000232778
0.000236181
0.000240456
0.000245782
0.000252351
0.000260355
0.000225764
0.000225842
0.000225936
0.000226031
0.000226137
0.000226264
0.000226426
0.000226639
0.000226919
0.000227285
0.000227758
0.000228361
0.000229119
0.000230063
0.000231232
0.00023267
0.000234438
0.000236604
0.000239257
0.000242499
0.000246448
0.000251241
0.000257021
0.000263937
0.000272136
0.000230329
0.000230423
0.000230553
0.000230704
0.000230886
0.000231111
0.000231392
0.000231746
0.000232191
0.000232748
0.000233437
0.000234284
0.000235315
0.000236562
0.000238064
0.000239866
0.000242024
0.000244603
0.000247681
0.000251348
0.000255705
0.000260862
0.000266936
0.000274043
0.000282294
0.000234694
0.000234804
0.000234968
0.000235171
0.000235424
0.000235739
0.000236132
0.000236617
0.000237214
0.000237944
0.000238829
0.000239893
0.000241165
0.000242675
0.000244463
0.00024657
0.000249049
0.000251958
0.000255367
0.000259353
0.000264
0.0002694
0.000275643
0.000282822
0.000291017
0.000238853
0.000238979
0.000239173
0.000239425
0.000239744
0.000240143
0.000240637
0.000241242
0.000241977
0.000242862
0.00024392
0.000245175
0.000246655
0.000248391
0.000250417
0.000252775
0.000255512
0.000258679
0.000262337
0.000266552
0.000271393
0.000276935
0.000283251
0.000290409
0.000298472
0.000242805
0.000242944
0.000243166
0.000243462
0.000243841
0.000244317
0.000244902
0.000245615
0.000246472
0.000247494
0.000248703
0.000250123
0.00025178
0.000253704
0.000255926
0.000258484
0.000261421
0.000264782
0.00026862
0.000272988
0.000277945
0.000283551
0.000289862
0.000296931
0.000304805
0.000246545
0.000246696
0.000246944
0.000247279
0.000247713
0.000248256
0.000248923
0.00024973
0.000250695
0.000251836
0.000253175
0.000254734
0.000256538
0.000258614
0.000260992
0.000263707
0.000266793
0.000270293
0.000274249
0.000278708
0.000283717
0.000289323
0.000295571
0.0003025
0.000310143
0.000250074
0.000250235
0.000250505
0.000250875
0.000251356
0.000251959
0.000252698
0.000253588
0.000254644
0.000255887
0.000257334
0.000259008
0.000260931
0.000263128
0.000265627
0.000268456
0.000271649
0.000275239
0.000279265
0.000283762
0.000288771
0.000294327
0.000300466
0.000307216
0.0003146
0.00025339
0.00025356
0.000253849
0.00025425
0.000254772
0.000255427
0.000256227
0.000257187
0.000258321
0.000259647
0.000261184
0.00026295
0.000264966
0.000267255
0.000269842
0.000272751
0.000276012
0.000279653
0.000283705
0.000288198
0.000293165
0.000298632
0.000304627
0.00031117
0.000318277
0.000256495
0.000256673
0.000256977
0.000257404
0.000257962
0.00025866
0.000259512
0.00026053
0.000261729
0.000263123
0.00026473
0.000266567
0.000268654
0.000271009
0.000273655
0.000276613
0.000279909
0.000283566
0.000287609
0.000292064
0.000296955
0.000302304
0.000308129
0.000314446
0.000321263
0.000259391
0.000259575
0.000259893
0.000260341
0.000260928
0.000261663
0.000262557
0.000263622
0.000264872
0.000266319
0.00026798
0.00026987
0.000272005
0.000274403
0.000277083
0.000280064
0.000283367
0.000287011
0.000291017
0.000295406
0.000300195
0.000305402
0.000311039
0.000317117
0.000323638
0.000262082
0.00026227
0.000262598
0.000263064
0.000263674
0.000264438
0.000265366
0.000266468
0.000267757
0.000269244
0.000270943
0.000272868
0.000275033
0.000277455
0.000280147
0.000283128
0.000286414
0.000290022
0.000293968
0.000298267
0.000302935
0.000307982
0.000313419
0.000319249
0.000325473
0.000264571
0.000264762
0.000265098
0.000265577
0.000266206
0.000266992
0.000267946
0.000269076
0.000270392
0.000271907
0.00027363
0.000275575
0.000277754
0.000280181
0.000282868
0.000285829
0.000289079
0.000292631
0.000296497
0.000300691
0.000305221
0.000310097
0.000315323
0.000320903
0.000326832
0.000266863
0.000267056
0.000267398
0.000267886
0.000268529
0.000269332
0.000270303
0.000271452
0.000272787
0.000274317
0.000276053
0.000278005
0.000280183
0.0002826
0.000285265
0.000288191
0.000291389
0.000294869
0.000298641
0.000302715
0.000307097
0.000311793
0.000316805
0.000322132
0.00032777
0.000268965
0.000269158
0.000269503
0.000269998
0.000270649
0.000271463
0.000272446
0.000273606
0.00027495
0.000276487
0.000278224
0.000280171
0.000282337
0.00028473
0.000287361
0.000290238
0.00029337
0.000296765
0.000300432
0.000304376
0.000308602
0.000313113
0.000317908
0.000322985
0.000328339
0.000270881
0.000271074
0.000271421
0.000271919
0.000272575
0.000273394
0.000274383
0.000275547
0.000276892
0.000278426
0.000280156
0.000282088
0.00028423
0.00028659
0.000289175
0.000291992
0.000295048
0.00029835
0.000301902
0.000305709
0.000309774
0.000314097
0.000318676
0.000323507
0.000328583
0.00027262
0.000272811
0.000273157
0.000273656
0.000274313
0.000275134
0.000276122
0.000277284
0.000278624
0.000280148
0.000281862
0.00028377
0.00028588
0.000288197
0.000290727
0.000293476
0.000296448
0.000299648
0.00030308
0.000306746
0.000310646
0.000314781
0.000319146
0.000323736
0.000328543
0.000274187
0.000274376
0.00027472
0.000275217
0.000275872
0.00027669
0.000277674
0.000278828
0.000280157
0.000281664
0.000283355
0.000285233
0.000287303
0.00028957
0.000292038
0.000294711
0.000297593
0.000300686
0.000303993
0.000307515
0.000311251
0.000315198
0.000319352
0.000323707
0.000328255
0.00027559
0.000275777
0.000276117
0.00027661
0.000277261
0.000278072
0.000279047
0.000280189
0.000281501
0.000282987
0.000284649
0.00028649
0.000288514
0.000290725
0.000293125
0.000295717
0.000298504
0.000301488
0.000304668
0.000308044
0.000311615
0.000315377
0.000319326
0.000323454
0.000327752
0.000276837
0.000277021
0.000277356
0.000277843
0.000278487
0.000279289
0.000280251
0.000281378
0.000282669
0.000284128
0.000285756
0.000287556
0.000289529
0.000291679
0.000294007
0.000296515
0.000299204
0.000302075
0.000305126
0.000308358
0.000311766
0.000315347
0.000319096
0.000323004
0.000327062
0.000277936
0.000278115
0.000278445
0.000278925
0.000279559
0.000280349
0.000281297
0.000282403
0.00028367
0.000285098
0.000286689
0.000288443
0.000290363
0.000292448
0.000294701
0.000297122
0.000299711
0.000302468
0.000305391
0.000308479
0.000311727
0.000315132
0.000318686
0.000322383
0.000326212
0.000278895
0.00027907
0.000279393
0.000279864
0.000280487
0.000281263
0.000282192
0.000283277
0.000284516
0.00028591
0.00028746
0.000289166
0.000291028
0.000293047
0.000295223
0.000297555
0.000300043
0.000302686
0.000305483
0.000308429
0.000311521
0.000314754
0.000318121
0.000321614
0.000325225
0.00027972
0.000279891
0.000280206
0.000280668
0.000281278
0.000282038
0.000282948
0.000284008
0.000285217
0.000286576
0.000288082
0.000289738
0.00029154
0.00029349
0.000295587
0.00029783
0.000300218
0.000302748
0.000305419
0.000308227
0.000311167
0.000314234
0.00031742
0.000320719
0.000324121
0.000280421
0.000280587
0.000280895
0.000281346
0.000281942
0.000282685
0.000283573
0.000284606
0.000285784
0.000287104
0.000288566
0.000290169
0.000291911
0.000293792
0.00029581
0.000297963
0.000300251
0.00030267
0.000305218
0.000307891
0.000310683
0.00031359
0.000316603
0.000319717
0.00032292
0.000281005
0.000281166
0.000281465
0.000281905
0.000282487
0.000283211
0.000284076
0.000285082
0.000286226
0.000287507
0.000288923
0.000290473
0.000292153
0.000293964
0.000295903
0.000297968
0.000300157
0.000302467
0.000304895
0.000307437
0.000310087
0.000312839
0.000315687
0.000318623
0.000321637
0.00028148
0.000281635
0.000281926
0.000282354
0.00028292
0.000283625
0.000284467
0.000285444
0.000286554
0.000287795
0.000289164
0.000290659
0.000292278
0.000294019
0.00029588
0.000297858
0.00029995
0.000302154
0.000304465
0.00030688
0.000309392
0.000311997
0.000314686
0.000317453
0.000320289
0.000281853
0.000282003
0.000282285
0.000282701
0.000283251
0.000283936
0.000284753
0.0002857
0.000286776
0.000287976
0.000289298
0.000290739
0.000292297
0.000293969
0.000295752
0.000297645
0.000299642
0.000301742
0.000303941
0.000306233
0.000308614
0.000311076
0.000313615
0.000316221
0.000318887
0.000282132
0.000282276
0.000282549
0.000282953
0.000283487
0.000284151
0.000284943
0.000285861
0.000286901
0.000288061
0.000289336
0.000290723
0.00029222
0.000293824
0.000295532
0.00029734
0.000299246
0.000301246
0.000303335
0.000305509
0.000307763
0.000310091
0.000312486
0.00031494
0.000317445
0.000282323
0.000282463
0.000282727
0.000283117
0.000283635
0.000284279
0.000285046
0.000285934
0.000286939
0.000288058
0.000289286
0.00029062
0.000292058
0.000293595
0.000295228
0.000296955
0.000298772
0.000300675
0.000302659
0.00030472
0.000306853
0.000309052
0.00031131
0.000313619
0.000315973
0.000282434
0.000282569
0.000282824
0.000283202
0.000283703
0.000284326
0.000285069
0.000285927
0.000286897
0.000287975
0.000289157
0.00029044
0.000291818
0.00029329
0.000294852
0.0002965
0.00029823
0.000300039
0.000301923
0.000303876
0.000305893
0.000307969
0.000310097
0.00031227
0.000314481
0.000282472
0.000282602
0.000282848
0.000283214
0.000283699
0.000284301
0.000285019
0.000285847
0.000286783
0.000287821
0.000288958
0.000290189
0.000291511
0.000292919
0.000294411
0.000295983
0.00029763
0.000299349
0.000301136
0.000302986
0.000304893
0.000306852
0.000308857
0.000310901
0.000312976
0.000282443
0.000282568
0.000282806
0.000283159
0.000283628
0.00028421
0.000284903
0.000285703
0.000286604
0.000287604
0.000288696
0.000289878
0.000291144
0.000292491
0.000293915
0.000295413
0.00029698
0.000298613
0.000300308
0.000302059
0.000303861
0.00030571
0.000307598
0.000309519
0.000311467
0.000282354
0.000282474
0.000282703
0.000283045
0.000283498
0.00028406
0.000284729
0.0002855
0.000286368
0.00028733
0.000288379
0.000289512
0.000290724
0.000292012
0.000293371
0.000294798
0.000296289
0.000297839
0.000299446
0.000301103
0.000302806
0.000304549
0.000306327
0.000308133
0.000309961
0.00028221
0.000282325
0.000282547
0.000282876
0.000283314
0.000283857
0.000284502
0.000285246
0.000286082
0.000287006
0.000288014
0.0002891
0.00029026
0.00029149
0.000292787
0.000294146
0.000295563
0.000297035
0.000298557
0.000300125
0.000301733
0.000303377
0.000305051
0.000306749
0.000308464
0.000282017
0.000282128
0.000282342
0.000282661
0.000283083
0.000283608
0.00028423
0.000284946
0.000285751
0.000286639
0.000287606
0.000288647
0.000289757
0.000290932
0.000292169
0.000293463
0.00029481
0.000296207
0.000297649
0.000299132
0.000300651
0.000302201
0.000303776
0.000305371
0.00030698
0.000281781
0.000281889
0.000282095
0.000282403
0.000282811
0.000283317
0.000283917
0.000284607
0.000285382
0.000286236
0.000287163
0.000288161
0.000289222
0.000290345
0.000291524
0.000292755
0.000294036
0.000295361
0.000296727
0.00029813
0.000299564
0.000301025
0.000302508
0.000304007
0.000305516
0.000281507
0.000281612
0.000281811
0.000282109
0.000282503
0.000282991
0.00028357
0.000284235
0.00028498
0.000285801
0.000286691
0.000287646
0.000288662
0.000289733
0.000290857
0.00029203
0.000293246
0.000294504
0.000295798
0.000297124
0.000298478
0.000299855
0.000301251
0.000302659
0.000304074
0.000281201
0.000281302
0.000281495
0.000281783
0.000282164
0.000282636
0.000283194
0.000283835
0.000284552
0.00028534
0.000286194
0.000287109
0.00028808
0.000289104
0.000290175
0.000291291
0.000292447
0.00029364
0.000294866
0.00029612
0.000297398
0.000298696
0.000300009
0.000301332
0.00030266
0.000280867
0.000280965
0.000281153
0.000281431
0.000281799
0.000282255
0.000282794
0.000283411
0.000284101
0.000284859
0.000285678
0.000286555
0.000287484
0.000288461
0.000289482
0.000290544
0.000291643
0.000292775
0.000293935
0.000295121
0.000296329
0.000297552
0.000298788
0.000300031
0.000301277
0.000280509
0.000280606
0.000280788
0.000281058
0.000281414
0.000281854
0.000282375
0.000282969
0.000283634
0.000284362
0.000285148
0.000285988
0.000286877
0.00028781
0.000288784
0.000289794
0.000290838
0.000291912
0.000293012
0.000294133
0.000295273
0.000296427
0.00029759
0.000298758
0.000299927
0.000280133
0.000280228
0.000280405
0.000280667
0.000281012
0.000281438
0.000281941
0.000282514
0.000283154
0.000283854
0.000284609
0.000285414
0.000286264
0.000287155
0.000288084
0.000289046
0.000290038
0.000291057
0.000292098
0.000293159
0.000294236
0.000295323
0.000296418
0.000297516
0.000298613
0.000279743
0.000279836
0.00028001
0.000280264
0.000280599
0.000281011
0.000281497
0.00028205
0.000282666
0.00028334
0.000284065
0.000284836
0.000285649
0.000286501
0.000287386
0.000288302
0.000289245
0.000290212
0.000291199
0.000292203
0.00029322
0.000294245
0.000295276
0.000296308
0.000297337
0.000279342
0.000279435
0.000279605
0.000279852
0.000280178
0.000280577
0.000281047
0.000281581
0.000282175
0.000282823
0.000283519
0.000284259
0.000285037
0.000285851
0.000286695
0.000287567
0.000288464
0.000289382
0.000290317
0.000291267
0.000292228
0.000293195
0.000294166
0.000295136
0.000296102
0.000278934
0.000279027
0.000279194
0.000279437
0.000279753
0.000280141
0.000280595
0.000281111
0.000281684
0.000282308
0.000282976
0.000283686
0.000284431
0.000285208
0.000286014
0.000286845
0.000287698
0.000288569
0.000289456
0.000290355
0.000291262
0.000292175
0.00029309
0.000294003
0.00029491
0.000278524
0.000278617
0.000278783
0.00027902
0.000279329
0.000279705
0.000280146
0.000280645
0.000281197
0.000281798
0.00028244
0.000283121
0.000283835
0.000284578
0.000285346
0.000286138
0.000286949
0.000287776
0.000288617
0.000289468
0.000290326
0.000291188
0.00029205
0.000292909
0.000293761
0.000278115
0.000278209
0.000278374
0.000278607
0.000278908
0.000279275
0.000279702
0.000280185
0.000280718
0.000281296
0.000281914
0.000282567
0.000283251
0.000283961
0.000284695
0.000285449
0.000286221
0.000287007
0.000287804
0.00028861
0.000289422
0.000290235
0.000291048
0.000291857
0.000292658
0.00027771
0.000277806
0.000277971
0.000278201
0.000278496
0.000278853
0.000279268
0.000279735
0.00028025
0.000280808
0.000281402
0.000282028
0.000282683
0.000283362
0.000284063
0.000284781
0.000285516
0.000286262
0.000287019
0.000287783
0.00028855
0.000289319
0.000290085
0.000290847
0.0002916
0.000277312
0.000277412
0.000277578
0.000277805
0.000278095
0.000278443
0.000278847
0.0002793
0.000279797
0.000280334
0.000280906
0.000281507
0.000282134
0.000282783
0.000283452
0.000284137
0.000284836
0.000285545
0.000286263
0.000286987
0.000287713
0.00028844
0.000289163
0.000289881
0.00029059
0.000276925
0.00027703
0.000277198
0.000277424
0.000277709
0.00027805
0.000278442
0.000278881
0.000279362
0.00027988
0.000280429
0.000281006
0.000281606
0.000282227
0.000282865
0.000283518
0.000284183
0.000284857
0.000285539
0.000286225
0.000286913
0.000287599
0.000288283
0.00028896
0.000289628
0.000276553
0.000276664
0.000276835
0.000277062
0.000277343
0.000277676
0.000278058
0.000278484
0.000278948
0.000279447
0.000279974
0.000280528
0.000281102
0.000281696
0.000282305
0.000282927
0.000283559
0.0002842
0.000284847
0.000285498
0.000286149
0.000286799
0.000287445
0.000288084
0.000288713
0.000276199
0.000276317
0.000276494
0.000276721
0.000276999
0.000277326
0.000277698
0.00027811
0.000278559
0.000279038
0.000279545
0.000280075
0.000280625
0.000281191
0.000281772
0.000282364
0.000282966
0.000283576
0.00028419
0.000284807
0.000285424
0.000286039
0.00028665
0.000287254
0.000287848
0.000275866
0.000275994
0.000276177
0.000276406
0.000276682
0.000277003
0.000277365
0.000277764
0.000278196
0.000278657
0.000279143
0.00027965
0.000280175
0.000280715
0.000281268
0.000281832
0.000282405
0.000282984
0.000283567
0.000284153
0.000284738
0.000285321
0.000285899
0.000286469
0.000287031
0.000275558
0.000275698
0.00027589
0.000276123
0.000276397
0.000276712
0.000277064
0.000277449
0.000277864
0.000278306
0.00027877
0.000279254
0.000279755
0.000280269
0.000280796
0.000281332
0.000281876
0.000282426
0.00028298
0.000283536
0.000284091
0.000284643
0.000285191
0.000285731
0.000286263
0.00027528
0.000275434
0.000275638
0.000275875
0.000276148
0.000276456
0.000276797
0.000277168
0.000277566
0.000277987
0.00027843
0.00027889
0.000279366
0.000279855
0.000280355
0.000280864
0.000281381
0.000281904
0.00028243
0.000282957
0.000283484
0.000284008
0.000284527
0.00028504
0.000285543
0.000275035
0.000275208
0.000275426
0.000275669
0.000275941
0.000276242
0.00027657
0.000276925
0.000277303
0.000277703
0.000278122
0.000278558
0.000279009
0.000279472
0.000279947
0.00028043
0.00028092
0.000281416
0.000281915
0.000282416
0.000282916
0.000283414
0.000283907
0.000284394
0.000284871
0.000274831
0.000275027
0.000275262
0.000275512
0.000275781
0.000276073
0.000276387
0.000276722
0.000277079
0.000277456
0.00027785
0.00027826
0.000278685
0.000279123
0.000279571
0.000280028
0.000280493
0.000280963
0.000281437
0.000281913
0.000282389
0.000282862
0.000283331
0.000283793
0.000284248
0.000274675
0.000274899
0.000275156
0.000275412
0.000275677
0.000275956
0.000276251
0.000276564
0.000276896
0.000277246
0.000277613
0.000277996
0.000278394
0.000278805
0.000279228
0.00027966
0.0002801
0.000280546
0.000280996
0.000281448
0.0002819
0.000282351
0.000282797
0.000283238
0.000283671
0.000274576
0.000274837
0.000275118
0.00027538
0.000275636
0.000275897
0.000276169
0.000276453
0.000276755
0.000277075
0.000277412
0.000277766
0.000278136
0.00027852
0.000278917
0.000279324
0.00027974
0.000280162
0.00028059
0.00028102
0.000281451
0.00028188
0.000282306
0.000282727
0.000283141
0.00027455
0.000274855
0.000275165
0.000275429
0.00027567
0.000275904
0.000276142
0.000276392
0.000276657
0.000276942
0.000277246
0.000277569
0.000277909
0.000278266
0.000278636
0.000279019
0.000279412
0.000279812
0.000280219
0.000280628
0.00028104
0.00028145
0.000281858
0.000282261
0.000282657
0.000274619
0.000274979
0.000275319
0.000275576
0.000275789
0.000275983
0.000276176
0.00027638
0.000276602
0.000276846
0.000277113
0.000277402
0.000277712
0.00027804
0.000278385
0.000278745
0.000279115
0.000279495
0.000279882
0.000280273
0.000280666
0.000281059
0.00028145
0.000281837
0.000282218
0.000274818
0.000275242
0.000275609
0.000275843
0.000276006
0.000276141
0.000276272
0.000276418
0.000276586
0.000276783
0.000277009
0.000277262
0.00027754
0.000277841
0.000278161
0.000278498
0.000278848
0.000279209
0.000279578
0.000279952
0.000280329
0.000280707
0.000281083
0.000281456
0.000281823
0.000275212
0.000275701
0.000276079
0.000276257
0.000276335
0.00027638
0.000276428
0.000276499
0.000276605
0.000276748
0.000276929
0.000277144
0.000277391
0.000277665
0.000277962
0.000278278
0.000278609
0.000278953
0.000279306
0.000279665
0.000280028
0.000280392
0.000280756
0.000281116
0.000281472
0.000275918
0.000276443
0.000276785
0.000276845
0.000276785
0.0002767
0.000276637
0.000276616
0.000276647
0.000276731
0.000276865
0.000277043
0.000277259
0.000277508
0.000277783
0.000278081
0.000278396
0.000278725
0.000279064
0.000279411
0.000279762
0.000280115
0.000280468
0.000280818
0.000281164
0.000277144
0.000277602
0.000277801
0.000277638
0.000277357
0.000277089
0.00027688
0.000276749
0.000276698
0.000276721
0.000276808
0.000276951
0.000277139
0.000277365
0.000277623
0.000277905
0.000278206
0.000278523
0.000278852
0.000279189
0.00027953
0.000279874
0.000280218
0.00028056
0.000280898
0.000279246
0.000279374
0.000279201
0.000278641
0.000278028
0.000277511
0.000277128
0.000276875
0.000276739
0.000276701
0.000276747
0.000276859
0.000277024
0.000277233
0.000277477
0.000277747
0.000278039
0.000278348
0.000278668
0.000278997
0.000279332
0.000279669
0.000280006
0.000280342
0.000280673
0.00028313
0.000282163
0.000281039
0.000279789
0.000278711
0.000277894
0.00027732
0.000276947
0.000276735
0.00027665
0.000276664
0.000276755
0.000276907
0.000277105
0.00027734
0.000277605
0.000277891
0.000278195
0.000278511
0.000278835
0.000279165
0.000279498
0.000279831
0.000280162
0.000280489
0.00029201
0.000286858
0.000283248
0.000280874
0.000279223
0.000278093
0.000277354
0.000276897
0.000276642
0.000276536
0.000276539
0.000276625
0.000276774
0.000276971
0.000277206
0.00027747
0.000277757