/*--------------------------------*- C++ -*----------------------------------*\
  =========                 |
  \\      /  F ield         | OpenFOAM: The Open Source CFD Toolbox
   \\    /   O peration     | Website:  https://openfoam.org
    \\  /    A nd           | Version:  13
     \\/     M anipulation  |
\*---------------------------------------------------------------------------*/
FoamFile
{
    format      ascii;
    class       volScalarField;
    location    "20";
    object      p;
}
// * * * * * * * * * * * * * * * * * * * * * * * * * * * * * * * * * * * * * //

dimensions      [0 2 -2 0 0 0 0];

internalField   nonuniform List<scalar> 
6440
(
151.064
151.064
151.07
151.074
151.063
151.03
150.986
150.946
150.924
150.923
150.942
150.973
151.008
151.036
151.051
151.051
151.036
151.009
150.973
150.935
150.909
150.897
150.897
150.903
150.908
151.073
151.07
151.073
151.066
151.035
150.978
150.912
150.862
150.836
150.836
150.858
150.895
150.936
150.97
150.99
150.993
150.979
150.951
150.914
150.88
150.862
150.861
150.872
150.888
150.897
151.047
151.028
151.008
150.974
150.91
150.82
150.731
150.67
150.646
150.657
150.699
150.764
150.833
150.889
150.922
150.93
150.919
150.893
150.863
150.841
150.835
150.844
150.862
150.879
150.888
150.978
150.946
150.898
150.835
150.746
150.641
150.551
150.499
150.487
150.519
150.591
150.686
150.777
150.849
150.889
150.9
150.887
150.863
150.841
150.831
150.834
150.847
150.867
150.882
150.888
150.901
150.869
150.807
150.725
150.63
150.538
150.477
150.461
150.492
150.563
150.657
150.75
150.832
150.889
150.913
150.913
150.893
150.867
150.849
150.847
150.855
150.871
150.886
150.892
150.892
150.852
150.829
150.766
150.675
150.581
150.512
150.481
150.497
150.567
150.682
150.809
150.91
150.976
150.994
150.981
150.957
150.925
150.893
150.877
150.879
150.89
150.901
150.903
150.899
150.895
150.834
150.819
150.757
150.66
150.568
150.513
150.506
150.554
150.658
150.798
150.944
151.056
151.109
151.099
151.05
151.002
150.959
150.923
150.904
150.905
150.913
150.915
150.908
150.897
150.889
150.8
150.776
150.687
150.559
150.45
150.398
150.419
150.503
150.641
150.814
150.994
151.132
151.18
151.144
151.076
151.016
150.968
150.933
150.914
150.91
150.912
150.91
150.897
150.882
150.872
150.674
150.606
150.454
150.291
150.189
150.18
150.249
150.371
150.544
150.756
150.973
151.132
151.164
151.109
151.041
150.983
150.936
150.901
150.881
150.874
150.876
150.879
150.875
150.861
150.853
150.438
150.316
150.137
149.997
149.951
149.995
150.092
150.239
150.438
150.67
150.892
151.042
151.058
151.003
150.946
150.896
150.852
150.818
150.796
150.788
150.797
150.819
150.836
150.839
150.831
150.206
150.074
149.924
149.836
149.835
149.886
149.991
150.144
150.34
150.565
150.764
150.883
150.885
150.846
150.804
150.76
150.719
150.685
150.663
150.658
150.677
150.724
150.776
150.795
150.799
150.096
149.982
149.868
149.804
149.8
149.846
149.938
150.077
150.258
150.448
150.606
150.68
150.676
150.654
150.622
150.581
150.543
150.511
150.492
150.492
150.523
150.595
150.677
150.707
150.725
150.115
150.03
149.936
149.87
149.837
149.854
149.92
150.033
150.176
150.307
150.413
150.452
150.45
150.438
150.407
150.367
150.331
150.304
150.292
150.299
150.339
150.43
150.545
150.569
150.59
150.239
150.178
150.089
150.002
149.936
149.911
149.931
149.991
150.062
150.138
150.195
150.214
150.216
150.201
150.163
150.122
150.089
150.068
150.065
150.083
150.135
150.242
150.376
150.401
150.412
150.418
150.359
150.262
150.153
150.053
149.977
149.937
149.923
149.922
149.948
149.969
149.975
149.969
149.939
149.891
149.848
149.816
149.803
149.813
149.849
149.919
150.04
150.188
150.208
150.209
150.568
150.506
150.401
150.269
150.131
150.002
149.9
149.821
149.775
149.754
149.744
149.729
149.701
149.648
149.589
149.543
149.513
149.508
149.534
149.596
149.691
149.827
149.974
149.991
149.987
150.645
150.588
150.473
150.318
150.145
149.972
149.807
149.684
149.599
149.545
149.505
149.464
149.402
149.326
149.254
149.205
149.176
149.183
149.231
149.322
149.448
149.602
149.745
149.755
149.77
150.657
150.596
150.468
150.292
150.085
149.865
149.674
149.523
149.409
149.321
149.245
149.162
149.07
148.964
148.884
148.83
148.813
148.838
148.918
149.054
149.229
149.418
149.567
149.61
149.647
150.599
150.535
150.399
150.204
149.969
149.73
149.525
149.353
149.209
149.085
148.961
148.834
148.695
148.568
148.479
148.434
148.433
148.492
148.625
148.833
149.097
149.372
149.608
149.723
149.788
150.503
150.433
150.288
150.076
149.825
149.58
149.363
149.172
148.999
148.826
148.647
148.462
148.282
148.138
148.059
148.033
148.064
148.166
148.361
148.664
149.05
149.472
149.874
150.208
150.393
150.393
150.314
150.16
149.94
149.684
149.441
149.221
149.015
148.805
148.58
148.347
148.106
147.88
147.729
147.669
147.677
147.742
147.873
148.112
148.493
148.992
149.55
150.138
150.778
151.607
150.272
150.193
150.041
149.82
149.564
149.327
149.108
148.888
148.639
148.367
148.079
147.771
147.496
147.344
147.312
147.359
147.451
147.59
147.839
148.265
148.846
149.499
150.182
150.919
151.74
150.152
150.082
149.935
149.718
149.47
149.245
149.032
148.795
148.511
148.203
147.87
147.513
147.207
147.085
147.092
147.184
147.312
147.462
147.697
148.114
148.713
149.398
150.102
150.813
151.497
150.067
150.002
149.857
149.64
149.407
149.195
148.99
148.738
148.43
148.101
147.749
147.37
147.076
146.996
147.018
147.128
147.282
147.447
147.664
148.03
148.587
149.254
149.945
150.614
151.216
150.041
149.974
149.825
149.603
149.372
149.175
148.979
148.724
148.411
148.08
147.732
147.384
147.125
147.041
147.062
147.18
147.337
147.501
147.691
147.992
148.481
149.108
149.763
150.384
150.921
150.087
150.011
149.852
149.618
149.377
149.184
148.999
148.756
148.459
148.144
147.827
147.521
147.294
147.187
147.203
147.295
147.433
147.586
147.749
147.992
148.413
148.981
149.584
150.151
150.637
150.2
150.11
149.935
149.687
149.419
149.222
149.049
148.831
148.566
148.28
147.996
147.731
147.527
147.413
147.394
147.449
147.561
147.694
147.834
148.032
148.387
148.885
149.426
149.935
150.369
150.362
150.257
150.057
149.788
149.5
149.288
149.125
148.935
148.704
148.454
148.206
147.972
147.788
147.671
147.627
147.647
147.724
147.83
147.943
148.105
148.399
148.825
149.295
149.742
150.123
150.552
150.438
150.21
149.921
149.617
149.382
149.218
149.049
148.85
148.634
148.418
148.216
148.053
147.94
147.878
147.867
147.909
147.985
148.07
148.2
148.441
148.795
149.193
149.574
149.899
150.73
150.629
150.39
150.088
149.767
149.502
149.321
149.161
148.985
148.8
148.617
148.447
148.307
148.201
148.126
148.089
148.103
148.151
148.21
148.312
148.506
148.79
149.116
149.431
149.698
150.859
150.794
150.57
150.267
149.939
149.647
149.438
149.273
149.113
148.953
148.799
148.658
148.539
148.439
148.356
148.304
148.3
148.324
148.359
148.438
148.586
148.806
149.066
149.313
149.518
150.916
150.891
150.72
150.439
150.118
149.817
149.583
149.403
149.247
149.104
148.972
148.853
148.748
148.654
148.571
148.517
148.504
148.506
148.521
148.575
148.678
148.841
149.038
149.214
149.358
150.928
150.928
150.825
150.591
150.3
150.009
149.764
149.571
149.414
149.278
149.16
149.055
148.961
148.872
148.796
148.747
148.722
148.701
148.698
148.72
148.778
148.887
149.021
149.13
149.216
150.92
150.929
150.879
150.715
150.471
150.212
149.978
149.786
149.632
149.504
149.395
149.301
149.214
149.129
149.057
149.005
148.956
148.912
148.883
148.866
148.878
148.936
149.01
149.059
149.093
150.909
150.908
150.886
150.792
150.617
150.406
150.207
150.039
149.903
149.791
149.695
149.608
149.52
149.434
149.357
149.28
149.206
149.136
149.064
149.008
148.979
148.988
149.002
148.999
148.984
150.895
150.883
150.875
150.828
150.72
150.575
150.432
150.312
150.213
150.128
150.047
149.962
149.868
149.771
149.673
149.571
149.469
149.35
149.236
149.149
149.076
149.034
148.995
148.948
148.89
150.885
150.868
150.849
150.824
150.774
150.703
150.636
150.584
150.54
150.49
150.427
150.343
150.241
150.125
149.994
149.861
149.709
149.54
149.405
149.276
149.16
149.075
148.992
148.905
148.81
150.884
150.859
150.825
150.798
150.773
150.772
150.796
150.834
150.861
150.858
150.816
150.737
150.618
150.466
150.301
150.118
149.909
149.72
149.552
149.384
149.238
149.113
148.992
148.869
148.741
150.899
150.867
150.821
150.772
150.746
150.781
150.895
151.037
151.152
151.206
151.195
151.112
150.963
150.775
150.561
150.319
150.083
149.879
149.671
149.466
149.295
149.141
148.99
148.839
148.681
150.936
150.895
150.838
150.775
150.736
150.771
150.939
151.182
151.39
151.505
151.519
151.422
151.234
151.002
150.739
150.469
150.227
149.988
149.741
149.529
149.34
149.162
148.988
148.811
148.63
150.996
150.944
150.878
150.804
150.75
150.79
150.981
151.284
151.553
151.705
151.723
151.602
151.384
151.12
150.842
150.57
150.301
150.034
149.794
149.576
149.372
149.176
148.982
148.787
148.586
151.065
151.007
150.933
150.85
150.783
150.821
151.032
151.348
151.606
151.742
151.755
151.634
151.413
151.154
150.879
150.596
150.32
150.065
149.827
149.603
149.388
149.179
148.973
148.762
148.547
151.115
151.055
150.971
150.869
150.785
150.798
150.98
151.275
151.528
151.664
151.683
151.567
151.363
151.114
150.844
150.573
150.315
150.07
149.836
149.61
149.391
149.175
148.959
148.74
148.513
151.125
151.06
150.953
150.817
150.681
150.638
150.767
151.043
151.316
151.481
151.517
151.425
151.24
151.011
150.767
150.523
150.284
150.052
149.825
149.603
149.383
149.164
148.943
148.716
148.483
151.099
151.027
150.891
150.698
150.504
150.421
150.511
150.77
151.054
151.245
151.3
151.23
151.076
150.881
150.669
150.453
150.235
150.017
149.8
149.583
149.366
149.146
148.923
148.695
148.456
151.04
150.961
150.798
150.562
150.343
150.257
150.315
150.533
150.8
150.998
151.067
151.022
150.901
150.741
150.561
150.371
150.174
149.972
149.765
149.555
149.342
149.124
148.903
148.672
148.434
150.955
150.876
150.704
150.46
150.261
150.195
150.228
150.366
150.599
150.784
150.854
150.827
150.736
150.607
150.455
150.288
150.108
149.919
149.723
149.521
149.313
149.1
148.88
148.653
148.415
150.875
150.803
150.641
150.415
150.272
150.219
150.237
150.31
150.482
150.625
150.684
150.667
150.596
150.49
150.358
150.207
150.041
149.864
149.678
149.484
149.283
149.075
148.86
148.635
148.4
150.837
150.771
150.636
150.457
150.363
150.334
150.332
150.354
150.444
150.532
150.569
150.549
150.486
150.391
150.271
150.132
149.977
149.81
149.633
149.447
149.253
149.051
148.839
148.62
148.389
150.861
150.806
150.707
150.581
150.522
150.505
150.487
150.453
150.462
150.496
150.503
150.469
150.403
150.311
150.197
150.065
149.918
149.76
149.59
149.412
149.224
149.027
148.822
148.607
148.382
150.917
150.884
150.822
150.749
150.703
150.682
150.653
150.569
150.515
150.5
150.47
150.417
150.341
150.247
150.134
150.007
149.866
149.714
149.551
149.379
149.197
149.007
148.807
148.598
148.378
150.965
150.956
150.932
150.902
150.872
150.85
150.809
150.681
150.58
150.52
150.456
150.382
150.296
150.197
150.084
149.958
149.822
149.674
149.516
149.349
149.173
148.989
148.795
148.592
148.379
150.994
150.994
150.995
151.002
150.998
150.989
150.93
150.767
150.637
150.54
150.45
150.36
150.263
150.157
150.043
149.918
149.783
149.639
149.486
149.324
149.153
148.974
148.786
148.59
148.383
151.004
151.005
151.02
151.045
151.06
151.071
150.987
150.812
150.67
150.553
150.446
150.342
150.236
150.126
150.008
149.884
149.75
149.609
149.46
149.302
149.137
148.963
148.781
148.59
148.391
150.998
150.998
151.019
151.048
151.075
151.092
150.994
150.825
150.68
150.555
150.439
150.325
150.213
150.099
149.98
149.854
149.723
149.584
149.438
149.284
149.123
148.955
148.778
148.595
148.402
150.975
150.972
150.995
151.026
151.065
151.074
150.969
150.813
150.669
150.543
150.423
150.306
150.191
150.074
149.954
149.829
149.699
149.562
149.419
149.27
149.113
148.95
148.779
148.601
148.416
150.943
150.935
150.953
150.983
151.031
151.026
150.915
150.778
150.645
150.521
150.402
150.285
150.169
150.052
149.931
149.807
149.678
149.544
149.404
149.258
149.106
148.948
148.782
148.611
148.432
150.907
150.896
150.908
150.936
150.978
150.96
150.848
150.725
150.61
150.493
150.376
150.262
150.146
150.029
149.91
149.787
149.66
149.528
149.391
149.249
149.101
148.948
148.788
148.622
148.451
150.876
150.864
150.87
150.898
150.927
150.884
150.785
150.678
150.57
150.46
150.349
150.236
150.123
150.008
149.89
149.768
149.643
149.514
149.381
149.242
149.099
148.95
148.796
148.637
148.471
150.853
150.844
150.845
150.868
150.883
150.812
150.723
150.632
150.531
150.427
150.32
150.211
150.1
149.986
149.87
149.751
149.629
149.502
149.372
149.237
149.098
148.954
148.805
148.651
148.493
150.841
150.836
150.837
150.846
150.834
150.755
150.675
150.587
150.493
150.394
150.291
150.185
150.076
149.965
149.851
149.735
149.615
149.491
149.364
149.233
149.098
148.959
148.815
148.668
148.516
150.835
150.834
150.837
150.834
150.786
150.711
150.633
150.547
150.457
150.361
150.262
150.159
150.053
149.944
149.833
149.719
149.602
149.482
149.358
149.231
149.1
148.965
148.827
148.685
148.539
150.831
150.833
150.834
150.818
150.741
150.673
150.596
150.511
150.423
150.33
150.234
150.133
150.03
149.924
149.815
149.704
149.59
149.473
149.353
149.229
149.102
148.972
148.839
148.703
148.563
150.824
150.829
150.823
150.788
150.702
150.636
150.56
150.478
150.391
150.3
150.206
150.109
150.008
149.904
149.798
149.69
149.579
149.465
149.348
149.228
149.106
148.98
148.852
148.72
148.587
150.813
150.82
150.81
150.751
150.674
150.604
150.527
150.446
150.36
150.272
150.18
150.084
149.986
149.885
149.782
149.676
149.568
149.457
149.344
149.228
149.109
148.988
148.865
148.739
148.61
150.801
150.808
150.796
150.716
150.651
150.576
150.496
150.415
150.331
150.244
150.153
150.06
149.964
149.866
149.765
149.662
149.557
149.45
149.34
149.228
149.113
148.997
148.878
148.757
148.634
150.786
150.793
150.773
150.68
150.618
150.545
150.466
150.385
150.302
150.217
150.128
150.037
149.943
149.847
149.749
149.649
149.547
149.443
149.336
149.228
149.118
149.005
148.891
148.775
148.657
150.768
150.776
150.737
150.648
150.584
150.513
150.437
150.356
150.274
150.19
150.103
150.014
149.922
149.829
149.733
149.636
149.537
149.436
149.333
149.228
149.122
149.014
148.904
148.792
148.68
150.751
150.761
150.702
150.628
150.555
150.482
150.407
150.327
150.246
150.163
150.078
149.99
149.901
149.81
149.717
149.623
149.527
149.429
149.329
149.228
149.126
149.022
148.916
148.81
148.702
150.738
150.748
150.669
150.609
150.528
150.452
150.377
150.298
150.218
150.136
150.052
149.967
149.88
149.791
149.701
149.61
149.517
149.422
149.326
149.229
149.13
149.03
148.928
148.826
148.723
150.73
150.736
150.636
150.579
150.5
150.421
150.346
150.268
150.189
150.108
150.027
149.943
149.859
149.773
149.685
149.597
149.507
149.415
149.322
149.228
149.133
149.037
148.94
148.842
148.743
150.727
150.719
150.605
150.548
150.469
150.39
150.314
150.237
150.159
150.081
150.001
149.92
149.837
149.754
149.669
149.583
149.496
149.408
149.319
149.228
149.137
149.044
148.951
148.857
148.763
150.721
150.694
150.579
150.514
150.436
150.357
150.281
150.206
150.129
150.052
149.974
149.895
149.816
149.735
149.653
149.57
149.486
149.401
149.315
149.227
149.139
149.051
148.961
148.871
148.781
150.701
150.659
150.551
150.477
150.4
150.322
150.247
150.173
150.098
150.023
149.947
149.871
149.794
149.716
149.636
149.556
149.475
149.393
149.31
149.227
149.142
149.057
148.971
148.885
148.799
150.668
150.612
150.516
150.436
150.36
150.285
150.211
150.139
150.066
149.993
149.92
149.846
149.772
149.696
149.62
149.543
149.465
149.386
149.306
149.225
149.144
149.063
148.98
148.898
148.815
150.62
150.553
150.47
150.391
150.317
150.244
150.173
150.103
150.033
149.963
149.893
149.822
149.75
149.677
149.603
149.529
149.454
149.378
149.301
149.224
149.146
149.068
148.989
148.91
148.831
150.556
150.483
150.414
150.339
150.27
150.201
150.134
150.067
150
149.933
149.865
149.796
149.727
149.658
149.587
149.516
149.443
149.37
149.297
149.223
149.148
149.073
148.997
148.922
148.846
150.476
150.409
150.351
150.284
150.22
150.156
150.093
150.029
149.966
149.902
149.837
149.772
149.705
149.638
149.571
149.502
149.433
149.363
149.292
149.221
149.149
149.077
149.005
148.933
148.86
150.393
150.336
150.286
150.227
150.169
150.11
150.051
149.992
149.931
149.871
149.809
149.747
149.683
149.619
149.554
149.489
149.422
149.355
149.287
149.219
149.15
149.081
149.012
148.943
148.874
150.311
150.264
150.222
150.17
150.118
150.064
150.009
149.954
149.897
149.84
149.781
149.722
149.662
149.6
149.538
149.475
149.412
149.347
149.282
149.217
149.151
149.085
149.019
148.952
148.886
150.234
150.196
150.159
150.114
150.068
150.019
149.968
149.916
149.863
149.809
149.754
149.698
149.64
149.582
149.522
149.462
149.401
149.34
149.277
149.215
149.152
149.088
149.025
148.961
148.898
150.162
150.131
150.1
150.06
150.019
149.974
149.928
149.88
149.83
149.779
149.727
149.674
149.619
149.564
149.507
149.45
149.391
149.332
149.273
149.212
149.152
149.091
149.03
148.969
148.908
150.097
150.071
150.045
150.009
149.973
149.932
149.89
149.845
149.799
149.751
149.702
149.651
149.599
149.546
149.492
149.437
149.381
149.325
149.268
149.21
149.152
149.093
149.035
148.977
148.918
150.038
150.016
149.994
149.962
149.929
149.892
149.853
149.812
149.769
149.724
149.677
149.629
149.58
149.529
149.478
149.425
149.372
149.318
149.263
149.207
149.152
149.096
149.039
148.983
148.928
149.985
149.967
149.947
149.919
149.89
149.855
149.819
149.781
149.74
149.698
149.654
149.609
149.562
149.514
149.464
149.414
149.363
149.311
149.258
149.205
149.151
149.098
149.044
148.99
148.937
149.938
149.922
149.905
149.88
149.853
149.822
149.789
149.752
149.715
149.675
149.633
149.59
149.545
149.499
149.452
149.404
149.355
149.305
149.254
149.203
149.151
149.1
149.048
148.996
148.945
149.896
149.882
149.867
149.845
149.82
149.791
149.761
149.727
149.691
149.653
149.614
149.573
149.53
149.486
149.441
149.394
149.347
149.299
149.25
149.201
149.152
149.102
149.052
149.002
148.953
149.859
149.847
149.834
149.813
149.791
149.764
149.735
149.704
149.67
149.634
149.596
149.557
149.516
149.474
149.43
149.386
149.34
149.294
149.247
149.2
149.152
149.104
149.056
149.008
148.96
149.827
149.816
149.804
149.785
149.765
149.74
149.713
149.683
149.651
149.616
149.581
149.543
149.504
149.463
149.421
149.378
149.334
149.29
149.244
149.198
149.152
149.106
149.06
149.013
148.967
149.799
149.789
149.779
149.761
149.742
149.718
149.692
149.664
149.633
149.6
149.566
149.53
149.492
149.453
149.412
149.371
149.329
149.285
149.241
149.197
149.152
149.108
149.063
149.018
148.973
149.775
149.766
149.757
149.739
149.721
149.699
149.674
149.647
149.617
149.586
149.553
149.518
149.481
149.443
149.404
149.364
149.323
149.281
149.239
149.196
149.152
149.109
149.065
149.022
148.979
149.756
149.747
149.738
149.721
149.704
149.682
149.658
149.632
149.603
149.573
149.541
149.507
149.472
149.435
149.397
149.358
149.318
149.277
149.236
149.194
149.152
149.11
149.068
149.025
148.983
149.74
149.732
149.724
149.707
149.69
149.669
149.645
149.62
149.592
149.562
149.531
149.498
149.463
149.428
149.391
149.353
149.314
149.274
149.234
149.193
149.152
149.111
149.07
149.028
148.987
149.73
149.721
149.713
149.697
149.68
149.659
149.636
149.61
149.583
149.554
149.523
149.491
149.457
149.422
149.386
149.349
149.311
149.272
149.232
149.193
149.153
149.112
149.072
149.032
148.991
149.725
149.716
149.708
149.69
149.674
149.652
149.629
149.604
149.577
149.548
149.518
149.486
149.452
149.418
149.382
149.346
149.309
149.27
149.232
149.193
149.153
149.114
149.074
149.035
148.996
149.725
149.714
149.706
149.688
149.671
149.65
149.626
149.601
149.574
149.545
149.515
149.483
149.45
149.416
149.381
149.345
149.308
149.27
149.232
149.194
149.155
149.116
149.077
149.038
149
149.727
149.716
149.709
149.689
149.671
149.649
149.625
149.6
149.572
149.543
149.513
149.482
149.449
149.415
149.38
149.344
149.308
149.271
149.233
149.195
149.157
149.118
149.08
149.042
149.004
149.738
149.723
149.716
149.695
149.673
149.65
149.625
149.599
149.571
149.542
149.512
149.481
149.448
149.414
149.379
149.344
149.308
149.271
149.234
149.196
149.158
149.12
149.082
149.044
149.006
149.778
149.744
149.727
149.702
149.676
149.651
149.625
149.598
149.571
149.541
149.511
149.48
149.447
149.414
149.379
149.344
149.308
149.271
149.234
149.196
149.159
149.121
149.083
149.046
149.008
149.854
149.775
149.735
149.705
149.677
149.651
149.625
149.598
149.57
149.541
149.511
149.479
149.447
149.413
149.379
149.343
149.307
149.271
149.234
149.197
149.159
149.121
149.084
149.046
149.009
152.926
152.923
152.918
152.913
152.908
152.902
152.896
152.888
152.879
152.87
152.861
152.855
152.855
152.861
152.876
152.899
152.926
152.951
152.967
152.969
152.96
152.944
152.928
152.92
152.919
152.938
152.934
152.928
152.922
152.915
152.906
152.896
152.882
152.868
152.852
152.838
152.826
152.82
152.823
152.835
152.856
152.884
152.912
152.934
152.945
152.942
152.929
152.917
152.912
152.913
152.953
152.949
152.942
152.932
152.92
152.905
152.888
152.868
152.845
152.822
152.801
152.782
152.771
152.769
152.777
152.795
152.822
152.852
152.881
152.903
152.913
152.912
152.907
152.904
152.904
152.963
152.96
152.95
152.936
152.918
152.896
152.87
152.84
152.807
152.773
152.739
152.709
152.689
152.681
152.685
152.701
152.73
152.765
152.803
152.838
152.867
152.887
152.898
152.899
152.895
152.969
152.965
152.952
152.933
152.909
152.879
152.844
152.803
152.756
152.705
152.655
152.611
152.579
152.565
152.565
152.581
152.614
152.655
152.703
152.751
152.798
152.84
152.874
152.89
152.887
152.976
152.969
152.951
152.927
152.897
152.861
152.817
152.765
152.703
152.635
152.567
152.506
152.461
152.436
152.434
152.452
152.488
152.537
152.594
152.655
152.715
152.773
152.829
152.87
152.877
152.99
152.98
152.956
152.925
152.89
152.848
152.796
152.733
152.658
152.574
152.487
152.408
152.349
152.315
152.309
152.326
152.365
152.422
152.489
152.561
152.632
152.7
152.767
152.827
152.852
153.016
153.004
152.974
152.935
152.892
152.842
152.783
152.712
152.626
152.527
152.425
152.331
152.258
152.215
152.203
152.217
152.258
152.32
152.395
152.477
152.557
152.632
152.701
152.766
152.803
153.045
153.037
153.006
152.962
152.909
152.848
152.78
152.701
152.607
152.499
152.387
152.283
152.201
152.15
152.131
152.139
152.177
152.242
152.323
152.413
152.502
152.582
152.653
152.714
152.75
153.066
153.066
153.047
153.003
152.942
152.87
152.791
152.704
152.603
152.489
152.372
152.265
152.179
152.125
152.104
152.106
152.139
152.202
152.287
152.383
152.477
152.561
152.632
152.687
152.721
153.069
153.072
153.066
153.035
152.975
152.896
152.808
152.714
152.611
152.497
152.38
152.273
152.185
152.127
152.101
152.104
152.138
152.201
152.288
152.387
152.486
152.574
152.645
152.697
152.732
153.045
153.032
153.019
153.002
152.964
152.899
152.816
152.723
152.621
152.511
152.399
152.297
152.214
152.158
152.134
152.138
152.17
152.229
152.317
152.422
152.528
152.622
152.697
152.751
152.789
153.001
152.96
152.931
152.911
152.896
152.864
152.806
152.727
152.634
152.529
152.423
152.326
152.25
152.199
152.177
152.179
152.207
152.266
152.362
152.48
152.6
152.704
152.787
152.848
152.887
152.967
152.912
152.869
152.846
152.839
152.832
152.799
152.739
152.654
152.554
152.448
152.354
152.279
152.23
152.206
152.207
152.236
152.307
152.421
152.56
152.697
152.819
152.916
152.986
153.029
152.956
152.904
152.867
152.853
152.852
152.858
152.842
152.789
152.702
152.598
152.488
152.387
152.307
152.253
152.226
152.232
152.275
152.367
152.502
152.659
152.816
152.956
153.071
153.157
153.207
152.953
152.916
152.895
152.898
152.913
152.931
152.931
152.885
152.794
152.677
152.552
152.435
152.34
152.277
152.251
152.266
152.33
152.443
152.594
152.764
152.936
153.095
153.229
153.33
153.394
152.944
152.926
152.928
152.949
152.97
153
153.028
153.004
152.915
152.783
152.634
152.492
152.378
152.306
152.283
152.31
152.39
152.515
152.673
152.851
153.033
153.205
153.354
153.471
153.541
152.938
152.933
152.945
152.974
152.995
153.019
153.054
153.066
153.008
152.874
152.708
152.549
152.423
152.345
152.317
152.346
152.428
152.553
152.711
152.89
153.078
153.261
153.425
153.553
153.626
152.944
152.951
152.954
152.977
153.001
153.016
153.025
153.023
152.98
152.872
152.722
152.568
152.439
152.352
152.318
152.34
152.414
152.533
152.687
152.867
153.06
153.253
153.43
153.573
153.655
152.938
152.954
152.935
152.95
152.974
152.988
152.981
152.955
152.901
152.802
152.667
152.522
152.392
152.299
152.256
152.267
152.33
152.44
152.589
152.767
152.964
153.166
153.356
153.515
153.613
152.753
152.82
152.829
152.862
152.888
152.893
152.87
152.823
152.751
152.648
152.52
152.385
152.262
152.171
152.125
152.131
152.186
152.287
152.427
152.598
152.791
152.993
153.186
153.354
153.463
152.441
152.615
152.664
152.702
152.721
152.714
152.68
152.621
152.537
152.43
152.306
152.178
152.062
151.975
151.927
151.926
151.97
152.058
152.184
152.342
152.522
152.714
152.901
153.065
153.18
152.04
152.304
152.419
152.476
152.499
152.492
152.456
152.391
152.299
152.186
152.06
151.933
151.817
151.725
151.668
151.65
151.672
151.734
151.835
151.967
152.122
152.29
152.456
152.601
152.703
151.683
151.97
152.123
152.202
152.233
152.227
152.187
152.116
152.018
151.9
151.771
151.639
151.517
151.413
151.337
151.292
151.279
151.302
151.358
151.445
151.552
151.672
151.792
151.901
151.99
151.341
151.627
151.799
151.893
151.931
151.925
151.883
151.809
151.708
151.585
151.449
151.309
151.172
151.046
150.939
150.853
150.789
150.75
150.737
150.743
150.763
150.788
150.812
150.831
150.834
151.018
151.289
151.464
151.563
151.604
151.6
151.556
151.478
151.371
151.241
151.094
150.936
150.775
150.615
150.463
150.32
150.185
150.058
149.937
149.817
149.688
149.543
149.384
149.233
149.176
150.712
150.961
151.127
151.224
151.263
151.256
151.207
151.123
151.007
150.864
150.698
150.516
150.32
150.115
149.902
149.682
149.45
149.2
148.924
148.606
148.233
147.786
147.25
146.649
146.005
150.424
150.646
150.795
150.88
150.912
150.896
150.839
150.743
150.613
150.451
150.261
150.044
149.804
149.54
149.25
148.93
148.569
148.153
147.656
147.052
146.293
145.341
144.121
142.717
141.085
150.155
150.344
150.469
150.537
150.555
150.526
150.454
150.342
150.192
150.006
149.783
149.525
149.229
148.892
148.506
148.06
147.536
146.901
146.111
145.097
143.751
141.946
139.323
135.837
129.609
149.906
150.057
150.153
150.199
150.196
150.149
150.058
149.925
149.75
149.532
149.271
148.962
148.601
148.178
147.679
147.083
146.358
145.455
144.288
142.74
140.565
137.535
132.576
126.507
107.506
149.676
149.786
149.85
149.868
149.841
149.77
149.656
149.497
149.292
149.038
148.731
148.366
147.93
147.411
146.786
146.021
145.068
143.855
142.251
140.062
136.812
131.989
122.361
106.124
47.0904
149.465
149.534
149.562
149.549
149.494
149.396
149.254
149.066
148.827
148.532
148.177
147.747
147.232
146.61
145.85
144.909
143.719
142.183
140.131
137.31
133.136
126.858
115.907
98.0873
67.9701
149.275
149.301
149.292
149.246
149.161
149.034
148.861
148.639
148.363
148.025
147.616
147.122
146.524
145.796
144.9
143.783
142.365
140.528
138.088
134.763
130.081
123.343
113.561
98.9748
81.2444
149.104
149.089
149.043
148.963
148.846
148.687
148.482
148.225
147.91
147.527
147.064
146.503
145.824
144.993
143.967
142.685
141.057
138.956
136.194
132.496
127.462
120.516
110.971
97.6073
80.4926
148.952
148.897
148.815
148.702
148.551
148.36
148.122
147.83
147.475
147.048
146.531
145.908
145.15
144.224
143.079
141.649
139.838
137.512
134.484
130.485
125.153
117.981
108.381
95.5674
79.3641
148.818
148.727
148.61
148.463
148.281
148.058
147.787
147.46
147.068
146.597
146.032
145.349
144.522
143.511
142.263
140.706
138.741
136.231
132.984
128.744
123.159
115.778
106.095
93.5315
77.9158
148.702
148.576
148.427
148.248
148.036
147.782
147.481
147.121
146.694
146.185
145.575
144.843
143.956
142.874
141.542
139.885
137.798
135.143
131.728
127.289
121.48
113.844
103.884
90.9865
75.0618
148.601
148.444
148.265
148.058
147.818
147.537
147.207
146.818
146.36
145.818
145.172
144.398
143.465
142.33
140.937
139.207
137.036
134.281
130.74
126.152
120.141
112.22
101.841
88.1196
71.1088
148.513
148.33
148.125
147.893
147.627
147.322
146.967
146.554
146.071
145.502
144.828
144.026
143.061
141.893
140.463
138.694
136.479
133.672
130.059
125.365
119.141
110.894
99.8567
84.7966
65.9866
148.439
148.232
148.004
147.751
147.464
147.138
146.764
146.331
145.829
145.241
144.55
143.73
142.75
141.57
140.133
138.363
136.154
133.36
129.751
125.036
118.611
109.968
97.4297
80.0927
56.6781
148.375
148.149
147.903
147.632
147.328
146.986
146.596
146.149
145.635
145.037
144.337
143.514
142.537
141.367
139.952
138.222
136.078
133.381
129.915
125.373
119.093
110.424
96.3163
76.2828
39.1068
148.321
148.08
147.82
147.534
147.218
146.863
146.463
146.009
145.488
144.888
144.191
143.377
142.418
141.279
139.916
138.264
136.242
133.73
130.55
126.448
120.923
113.373
101.179
83.2986
34.0049
148.276
148.024
147.753
147.457
147.132
146.77
146.365
145.907
145.387
144.793
144.107
143.314
142.387
141.299
140.009
138.469
136.61
134.343
131.543
128.032
123.54
117.735
109.826
100.154
80.9504
148.238
147.979
147.7
147.399
147.068
146.703
146.297
145.842
145.329
144.746
144.082
143.317
142.435
141.41
140.212
138.802
137.131
135.138
132.743
129.846
126.316
122.01
116.736
110.521
102.872
148.208
147.944
147.662
147.357
147.026
146.661
146.259
145.811
145.309
144.745
144.106
143.379
142.549
141.597
140.499
139.228
137.752
136.033
134.027
131.689
128.978
125.886
122.468
119.001
116.061
148.184
147.919
147.636
147.331
147.001
146.641
146.246
145.809
145.323
144.781
144.173
143.489
142.717
141.841
140.847
139.716
138.428
136.964
135.304
133.437
131.368
129.135
126.839
124.714
123.143
148.166
147.902
147.62
147.319
146.994
146.641
146.255
145.832
145.366
144.849
144.276
143.637
142.924
142.127
141.234
140.236
139.123
137.885
136.52
135.036
133.456
131.832
130.269
128.939
128.076
148.153
147.892
147.615
147.319
147.001
146.657
146.284
145.877
145.432
144.944
144.407
143.814
143.16
142.439
141.643
140.768
139.809
138.767
137.647
136.465
135.249
134.049
132.949
132.062
131.521
148.146
147.89
147.619
147.33
147.02
146.687
146.328
145.94
145.518
145.059
144.558
144.012
143.416
142.766
142.059
141.294
140.471
139.595
138.674