/*--------------------------------*- C++ -*----------------------------------*\
  =========                 |
  \\      /  F ield         | OpenFOAM: The Open Source CFD Toolbox
   \\    /   O peration     | Website:  https://openfoam.org
    \\  /    A nd           | Version:  13
     \\/     M anipulation  |
\*---------------------------------------------------------------------------*/
FoamFile
{
    format      ascii;
    class       surfaceScalarField;
    location    "20";
    object      phi;
}
// * * * * * * * * * * * * * * * * * * * * * * * * * * * * * * * * * * * * * //

dimensions      [0 3 -1 0 0 0 0];

internalField   nonuniform List<scalar> 
12590
(
-1.44628e-08
1.08384e-08
-1.01859e-07
8.76889e-08
-2.18988e-07
1.14939e-07
-3.32536e-07
1.12418e-07
-4.32906e-07
9.97228e-08
-5.19865e-07
8.53652e-08
-5.87105e-07
6.80373e-08
-6.33247e-07
4.50606e-08
-6.51405e-07
2.00677e-08
-6.42273e-07
-9.80468e-09
-5.99056e-07
-4.12851e-08
-5.26854e-07
-7.31816e-08
-4.20185e-07
-1.05602e-07
-2.89076e-07
-1.33027e-07
-1.3874e-07
-1.50447e-07
5.34711e-09
-1.46566e-07
1.21468e-07
-1.17531e-07
2.06838e-07
-8.70001e-08
2.61134e-07
-5.5613e-08
2.81691e-07
-2.19483e-08
2.69754e-07
1.03472e-08
2.25384e-07
4.24058e-08
1.54127e-07
6.89169e-08
6.84112e-08
8.13311e-08
6.70962e-08
-1.56314e-07
1.64034e-07
-3.12394e-07
2.4251e-07
-4.54603e-07
2.55247e-07
-5.78699e-07
2.34823e-07
-6.79346e-07
1.99082e-07
-7.50782e-07
1.54689e-07
-7.89318e-07
1.06028e-07
-8.02963e-07
5.70781e-08
-7.90556e-07
7.70982e-09
-7.49857e-07
-5.17785e-08
-6.78354e-07
-1.12732e-07
-5.82906e-07
-1.69944e-07
-4.68578e-07
-2.20512e-07
-3.47255e-07
-2.5606e-07
-2.23744e-07
-2.75074e-07
-9.77753e-08
-2.74473e-07
3.02325e-08
-2.47209e-07
1.33785e-07
-1.92457e-07
1.9124e-07
-1.14959e-07
2.06245e-07
-3.90342e-08
1.92893e-07
2.10762e-08
1.54307e-07
7.89562e-08
9.80484e-08
1.21479e-07
3.425e-08
1.41806e-07
9.9946e-08
-1.73319e-07
3.33924e-07
-3.337e-07
4.00026e-07
-4.62746e-07
3.81613e-07
-5.67895e-07
3.37341e-07
-6.49192e-07
2.77611e-07
-7.05411e-07
2.08361e-07
-7.37234e-07
1.3578e-07
-7.49868e-07
6.78229e-08
-7.52327e-07
8.77714e-09
-7.28479e-07
-7.69619e-08
-6.7074e-07
-1.71659e-07
-5.79652e-07
-2.62721e-07
-4.7144e-07
-3.30138e-07
-3.67664e-07
-3.61587e-07
-2.70823e-07
-3.73414e-07
-1.76762e-07
-3.70061e-07
-7.95454e-08
-3.45986e-07
1.04483e-08
-2.84265e-07
6.25862e-08
-1.6945e-07
6.67383e-08
-4.6773e-08
5.56837e-08
2.8471e-08
2.92509e-08
1.01749e-07
2.20689e-10
1.48651e-07
-2.05051e-08
1.58108e-07
7.85211e-08
-1.00864e-07
4.30725e-07
-2.12773e-07
5.08355e-07
-3.17871e-07
4.83207e-07
-4.19272e-07
4.35335e-07
-5.09648e-07
3.64076e-07
-5.80074e-07
2.75999e-07
-6.28659e-07
1.8112e-07
-6.48898e-07
8.64834e-08
-6.5433e-07
1.20122e-08
-6.27475e-07
-1.0552e-07
-5.95244e-07
-2.05498e-07
-5.40758e-07
-3.18695e-07
-4.60638e-07
-4.11733e-07
-3.82351e-07
-4.41224e-07
-3.17143e-07
-4.39888e-07
-2.57465e-07
-4.30817e-07
-1.96024e-07
-4.08488e-07
-1.34117e-07
-3.47164e-07
-9.0586e-08
-2.14809e-07
-7.8809e-08
-6.13819e-08
-8.00283e-08
2.62867e-08
-7.83466e-08
9.88837e-08
-7.31532e-08
1.39512e-07
-4.21533e-08
1.25345e-07
3.47643e-08
1.77567e-09
4.26019e-07
-1.37478e-08
5.20974e-07
-4.5434e-08
5.12266e-07
-8.79479e-08
4.73993e-07
-1.46112e-07
4.19055e-07
-2.15559e-07
3.41125e-07
-2.85522e-07
2.4887e-07
-3.58338e-07
1.55501e-07
-3.87211e-07
3.78157e-08
-4.05913e-07
-8.91658e-08
-4.3517e-07
-1.7792e-07
-4.43473e-07
-3.11838e-07
-4.15745e-07
-4.40597e-07
-3.82258e-07
-4.75558e-07
-3.63794e-07
-4.59183e-07
-3.46179e-07
-4.49023e-07
-3.20405e-07
-4.34871e-07
-2.7984e-07
-3.88293e-07
-2.29378e-07
-2.66348e-07
-1.8603e-07
-1.06578e-07
-1.66908e-07
4.9555e-09
-1.37361e-07
6.64662e-08
-8.71697e-08
8.91549e-08
-2.37148e-08
5.6366e-08
9.67277e-09
7.23374e-08
3.52519e-07
1.31202e-07
4.60499e-07
1.96385e-07
4.46129e-07
2.74659e-07
3.94232e-07
3.6146e-07
3.31068e-07
4.37073e-07
2.64822e-07
4.72537e-07
2.12454e-07
4.48914e-07
1.78918e-07
3.3804e-07
1.4793e-07
1.29188e-07
1.18921e-07
-1.12856e-07
6.25851e-08
-2.99774e-07
-1.26472e-07
-3.42346e-07
-3.98992e-07
-3.81157e-07
-4.37396e-07
-4.21056e-07
-4.19737e-07
-4.46957e-07
-4.23487e-07
-4.51271e-07
-4.3083e-07
-4.2883e-07
-4.1121e-07
-3.6529e-07
-3.30568e-07
-2.72096e-07
-2.01132e-07
-1.88123e-07
-8.10262e-08
-1.03889e-07
-1.85386e-08
-1.75479e-08
-4.77817e-09
2.87857e-08
7.91772e-09
3.57937e-08
7.47999e-08
2.76977e-07
1.92613e-07
3.41696e-07
3.86074e-07
2.52173e-07
6.01363e-07
1.78181e-07
7.84458e-07
1.47481e-07
8.81654e-07
1.67e-07
8.82159e-07
2.11442e-07
8.03542e-07
2.57004e-07
6.49092e-07
3.01483e-07
4.32877e-07
3.34194e-07
1.70746e-07
3.23376e-07
-1.2086e-07
1.64031e-07
-2.83852e-07
-2.37198e-07
-4.0095e-07
-3.2078e-07
-4.94386e-07
-3.26589e-07
-5.5704e-07
-3.61054e-07
-5.86463e-07
-4.01588e-07
-5.80287e-07
-4.17766e-07
-5.16339e-07
-3.9499e-07
-3.89672e-07
-3.28881e-07
-2.26656e-07
-2.45162e-07
-7.02898e-08
-1.7954e-07
4.10386e-08
-1.14334e-07
4.76712e-08
-7.75129e-09
8.37313e-08
1.12999e-07
1.62e-07
3.89727e-07
6.37918e-08
6.79684e-07
-3.83407e-08
8.84808e-07
-2.77725e-08
9.71812e-07
5.97909e-08
9.67754e-07
1.69981e-07
8.97494e-07
2.80747e-07
7.64988e-07
3.88356e-07
5.81773e-07
4.83283e-07
3.63957e-07
5.50841e-07
1.28832e-07
5.57414e-07
-1.00483e-07
3.92583e-07
-3.1875e-07
-1.97442e-08
-4.75454e-07
-1.64388e-07
-5.93185e-07
-2.0905e-07
-6.71995e-07
-2.82398e-07
-7.16289e-07
-3.57414e-07
-7.2277e-07
-4.11543e-07
-6.76578e-07
-4.41466e-07
-5.65254e-07
-4.40656e-07
-4.007e-07
-4.10594e-07
-2.21199e-07
-3.58283e-07
-7.36114e-08
-2.68469e-07
9.49402e-09
-8.7828e-08
9.04758e-08
2.17346e-07
-5.77088e-08
5.33174e-07
-2.52977e-07
7.32594e-07
-2.38416e-07
8.12439e-07
-1.08529e-07
7.97858e-07
7.32295e-08
7.35289e-07
2.30851e-07
6.29582e-07
3.8477e-07
4.83851e-07
5.32257e-07
3.0156e-07
6.64307e-07
8.21823e-08
7.68799e-07
-1.3799e-07
7.7683e-07
-2.99104e-07
5.53384e-07
-4.56187e-07
1.36925e-07
-5.99707e-07
-2.10732e-08
-7.08741e-07
-1.00157e-07
-7.81577e-07
-2.09641e-07
-8.25689e-07
-3.13311e-07
-8.37237e-07
-4.00094e-07
-8.05697e-07
-4.73045e-07
-7.20221e-07
-5.26519e-07
-5.77951e-07
-5.52896e-07
-3.97812e-07
-5.40395e-07
-2.07845e-07
-4.55236e-07
-5.12228e-08
-2.50446e-07
4.04819e-08
2.85976e-07
-3.44725e-07
4.72194e-07
-4.40001e-07
5.57544e-07
-3.24039e-07
5.38126e-07
-9.0553e-08
4.65817e-07
1.43654e-07
3.80741e-07
3.12904e-07
2.68759e-07
4.94834e-07
1.12394e-07
6.86446e-07
-8.48582e-08
8.60247e-07
-2.90383e-07
9.73487e-07
-4.59188e-07
9.45256e-07
-5.32766e-07
6.26669e-07
-6.28124e-07
2.32062e-07
-7.40243e-07
9.09113e-08
-8.2259e-07
-1.78937e-08
-8.77101e-07
-1.55062e-07
-9.09864e-07
-2.80469e-07
-9.16599e-07
-3.93261e-07
-8.90964e-07
-4.98665e-07
-8.24945e-07
-5.92416e-07
-7.10549e-07
-6.67467e-07
-5.43956e-07
-7.05707e-07
-3.39417e-07
-6.63549e-07
-1.20359e-07
-4.65952e-07
-8.18071e-08
2.17678e-07
-5.62902e-07
3.05645e-07
-5.27963e-07
3.07722e-07
-3.26557e-07
2.14607e-07
4.11741e-11
1.49751e-07
2.05214e-07
5.05523e-08
4.08815e-07
-9.81614e-08
6.41367e-07
-2.87843e-07
8.74704e-07
-4.84807e-07
1.05653e-06
-6.42432e-07
1.13039e-06
-7.18184e-07
1.02066e-06
-7.24538e-07
6.3293e-07
-7.88405e-07
2.95847e-07
-8.66258e-07
1.68785e-07
-9.19124e-07
3.51061e-08
-9.52704e-07
-1.21228e-07
-9.68732e-07
-2.64131e-07
-9.63014e-07
-3.9867e-07
-9.32868e-07
-5.2836e-07
-8.74337e-07
-6.5053e-07
-7.79243e-07
-7.61692e-07
-6.38071e-07
-8.47674e-07
-4.3907e-07
-8.58062e-07
-2.03169e-07
-7.05492e-07
-2.82518e-07
1.0171e-07
-6.64098e-07
1.03359e-07
-5.29215e-07
3.92717e-08
-2.636e-07
-3.15204e-08
6.79509e-08
-1.20169e-07
2.9112e-07
-2.84342e-07
5.70922e-07
-4.86291e-07
8.42134e-07
-6.83481e-07
1.07091e-06
-8.29838e-07
1.2022e-06
-9.08919e-07
1.20908e-06
-8.87345e-07
9.98977e-07
-8.62689e-07
6.08247e-07
-9.13829e-07
3.47174e-07
-9.65337e-07
2.20586e-07
-9.92547e-07
6.28e-08
-1.00604e-06
-1.07133e-07
-1.00374e-06
-2.65731e-07
-9.82249e-07
-4.19303e-07
-9.40876e-07
-5.68705e-07
-8.78151e-07
-7.11859e-07
-7.90048e-07
-8.48574e-07
-6.63621e-07
-9.70817e-07
-4.87086e-07
-1.03756e-06
-2.51614e-07
-9.3545e-07
-5.34796e-07
-1.33732e-08
-6.50029e-07
-9.4022e-08
-4.48049e-07
-2.10647e-07
-1.47838e-07
-3.15313e-07
1.70573e-07
-4.84506e-07
4.58771e-07
-6.77033e-07
7.62191e-07
-8.62304e-07
1.02639e-06
-1.00103e-06
1.20894e-06
-1.06934e-06
1.27026e-06
-1.0621e-06
1.20155e-06
-9.87594e-07
9.24441e-07
-9.64812e-07
5.85755e-07
-1.00863e-06
3.91428e-07
-1.03663e-06
2.49212e-07
-1.04383e-06
7.08628e-08
-1.04052e-06
-1.09449e-07
-1.0212e-06
-2.83892e-07
-9.83828e-07
-4.5529e-07
-9.29008e-07
-6.21871e-07
-8.55629e-07
-7.83458e-07
-7.61954e-07
-9.39918e-07
-6.43831e-07
-1.0887e-06
-4.78757e-07
-1.19652e-06
-2.62375e-07
-1.15428e-06
-7.9488e-07
-1.15836e-07
-5.33453e-07
-2.68047e-07
-2.95677e-07
-4.39734e-07
2.27718e-08
-6.12359e-07
3.41845e-07
-8.06157e-07
6.51379e-07
-9.84734e-07
9.39794e-07
-1.12111e-06
1.16216e-06
-1.18844e-06
1.27581e-06
-1.19319e-06
1.27469e-06
-1.12261e-06
1.13095e-06
-1.04231e-06
8.44323e-07
-1.04285e-06
5.86672e-07
-1.07659e-06
4.25689e-07
-1.08572e-06
2.59229e-07
-1.08166e-06
6.77157e-08
-1.06663e-06
-1.23171e-07
-1.03379e-06
-3.15443e-07
-9.81727e-07
-5.05674e-07
-9.10513e-07
-6.91333e-07
-8.2167e-07
-8.70198e-07
-7.17726e-07
-1.04176e-06
-5.95298e-07
-1.2073e-06
-4.46146e-07
-1.34823e-06
-2.41792e-07
-1.3529e-06
-1.03614e-06
-1.83794e-07
-3.49358e-07
-3.9439e-07
-8.56104e-08
-6.0932e-07
2.3661e-07
-8.18224e-07
5.49623e-07
-1.01299e-06
8.45366e-07
-1.1671e-06
1.09318e-06
-1.25325e-06
1.24782e-06
-1.26637e-06
1.28856e-06
-1.21642e-06
1.22472e-06
-1.12631e-06
1.0408e-06
-1.08059e-06
7.98782e-07
-1.10067e-06
6.06973e-07
-1.12142e-06
4.47046e-07
-1.12191e-06
2.60234e-07
-1.11449e-06
6.14392e-08
-1.09155e-06
-1.4524e-07
-1.04729e-06
-3.58346e-07
-9.81733e-07
-5.69775e-07
-8.9496e-07
-7.76334e-07
-7.89488e-07
-9.73736e-07
-6.69938e-07
-1.15907e-06
-5.42547e-07
-1.33429e-06
-3.96051e-07
-1.48879e-06
-2.14675e-07
-1.53422e-06
-1.24847e-06
-2.2239e-07
-1.27017e-07
-4.6914e-07
1.60483e-07
-7.04956e-07
4.71593e-07
-9.21512e-07
7.6545e-07
-1.09816e-06
1.0215e-06
-1.21186e-06
1.20612e-06
-1.25385e-06
1.28979e-06
-1.23779e-06
1.27194e-06
-1.171e-06
1.1582e-06
-1.11048e-06
9.79904e-07
-1.10764e-06
7.96447e-07
-1.13496e-06
6.34068e-07
-1.14906e-06
4.61757e-07
-1.15202e-06
2.63252e-07
-1.14564e-06
5.62365e-08
-1.11607e-06
-1.74747e-07
-1.06124e-06
-4.11421e-07
-9.82514e-07
-6.47758e-07
-8.79935e-07
-8.76852e-07
-7.57666e-07
-1.09438e-06
-6.22152e-07
-1.29243e-06
-4.82557e-07
-1.47117e-06
-3.43116e-07
-1.629e-06
-1.8244e-07
-1.68996e-06
-1.43096e-06
-2.44518e-07
1.16942e-07
-5.00175e-07
4.15835e-07
-7.37841e-07
7.08833e-07
-9.43027e-07
9.70689e-07
-1.09601e-06
1.17327e-06
-1.17917e-06
1.29003e-06
-1.19876e-06
1.308e-06
-1.15851e-06
1.23302e-06
-1.10665e-06
1.10506e-06
-1.09052e-06
9.65415e-07
-1.11748e-06
8.2202e-07
-1.14755e-06
6.65964e-07
-1.16827e-06
4.80355e-07
-1.17777e-06
2.75456e-07
-1.17318e-06
4.80732e-08
-1.13327e-06
-2.11074e-07
-1.06815e-06
-4.79042e-07
-9.73121e-07
-7.3929e-07
-8.56068e-07
-9.93865e-07
-7.17345e-07
-1.23005e-06
-5.68518e-07
-1.44072e-06
-4.21223e-07
-1.61821e-06
-2.85015e-07
-1.76125e-06
-1.52266e-07
-1.82448e-06
-1.57948e-06
-2.47445e-07
3.65189e-07
-4.94404e-07
6.62994e-07
-7.18987e-07
9.33868e-07
-9.05445e-07
1.15631e-06
-1.03203e-06
1.30118e-06
-1.09641e-06
1.35311e-06
-1.09132e-06
1.30483e-06
-1.0548e-06
1.19525e-06
-1.04073e-06
1.09317e-06
-1.06792e-06
9.91224e-07
-1.1085e-06
8.64949e-07
-1.14829e-06
7.0249e-07
-1.17749e-06
5.12625e-07
-1.19537e-06
2.8803e-07
-1.17778e-06
3.56094e-08
-1.13104e-06
-2.6298e-07
-1.04899e-06
-5.56072e-07
-9.43411e-07
-8.46297e-07
-8.11018e-07
-1.12215e-06
-6.62041e-07
-1.37803e-06
-5.04289e-07
-1.59686e-06
-3.50987e-07
-1.76838e-06
-2.21036e-07
-1.89395e-06
-1.04421e-07
-1.93047e-06
-1.68225e-06
-2.33833e-07
5.98812e-07
-4.60924e-07
8.90339e-07
-6.67196e-07
1.1402e-06
-8.32513e-07
1.32287e-06
-9.38606e-07
1.407e-06
-9.76175e-07
1.39229e-06
-9.5958e-07
1.28865e-06
-9.49155e-07
1.18655e-06
-9.77305e-07
1.12156e-06
-1.02685e-06
1.0422e-06
-1.08036e-06
9.16723e-07
-1.13058e-06
7.54908e-07
-1.17383e-06
5.52815e-07
-1.18513e-06
3.03014e-07
-1.15815e-06
5.26543e-09
-1.08877e-06
-3.27479e-07
-9.9211e-07
-6.53297e-07
-8.7011e-07
-9.63717e-07
-7.31143e-07
-1.25858e-06
-5.77308e-07
-1.52836e-06
-4.1957e-07
-1.75035e-06
-2.77745e-07
-1.90932e-06
-1.54749e-07
-2.00402e-06
-7.15689e-08
-2.01144e-06
-1.75041e-06
-2.08036e-07
8.07135e-07
-4.1212e-07
1.09462e-06
-5.95953e-07
1.32477e-06
-7.39439e-07
1.46662e-06
-8.20408e-07
1.48972e-06
-8.32199e-07
1.40567e-06
-8.24866e-07
1.28309e-06
-8.48031e-07
1.21148e-06
-9.01573e-07
1.17639e-06
-9.62772e-07
1.10391e-06
-1.02452e-06
9.80526e-07
-1.08692e-06
8.15791e-07
-1.12706e-06
5.95076e-07
-1.12417e-06
3.00241e-07
-1.06559e-06
-4.95267e-08
-9.73845e-07
-4.1795e-07
-8.57876e-07
-7.65694e-07
-7.29961e-07
-1.08869e-06
-5.90469e-07
-1.39416e-06
-4.39988e-07
-1.67472e-06
-2.93162e-07
-1.89349e-06
-1.74398e-07
-2.01979e-06
-1.13287e-07
-2.06379e-06
-1.01504e-07
-2.01692e-06
-1.85196e-06
-1.53452e-07
9.59366e-07
-3.06796e-07
1.24768e-06
-4.38564e-07
1.45668e-06
-5.31259e-07
1.56103e-06
-5.68314e-07
1.52761e-06
-5.56404e-07
1.39589e-06
-5.52273e-07
1.28121e-06
-5.82011e-07
1.24313e-06
-6.34452e-07
1.23044e-06
-6.97039e-07
1.16803e-06
-7.74942e-07
1.05707e-06
-8.59647e-07
9.02973e-07
-9.30078e-07
6.66124e-07
-9.60661e-07
3.32928e-07
-9.48124e-07
-6.02728e-08
-9.21765e-07
-4.42335e-07
-9.0085e-07
-7.84795e-07
-8.89878e-07
-1.09747e-06
-8.73163e-07
-1.40867e-06
-8.28524e-07
-1.71682e-06
-7.60183e-07
-1.95925e-06
-7.04138e-07
-2.07429e-06
-7.01525e-07
-2.06358e-06
-7.87584e-07
-1.93179e-06
-1.56227e-06
-1.07843e-06
-1.11358e-07
1.06997e-06
-2.3339e-07
1.36923e-06
-3.38471e-07
1.56226e-06
-4.0945e-07
1.63147e-06
-4.28707e-07
1.54905e-06
-4.15981e-07
1.38443e-06
-4.21227e-07
1.28832e-06
-4.56221e-07
1.27959e-06
-5.04991e-07
1.27994e-06
-5.60773e-07
1.22337e-06
-6.23899e-07
1.12276e-06
-6.83196e-07
9.61111e-07
-7.07573e-07
6.91841e-07
-6.71787e-07
2.98638e-07
-6.1058e-07
-1.19387e-07
-5.65515e-07
-4.86029e-07
-5.55417e-07
-7.9372e-07
-5.84903e-07
-1.06689e-06
-6.23148e-07
-1.36899e-06
-6.18625e-07
-1.72006e-06
-5.576e-07
-2.01918e-06
-4.7374e-07
-2.15743e-06
-4.02683e-07
-2.13605e-06
-3.44383e-07
-1.99141e-06
-1.71661e-06
-1.90089e-07
-7.01488e-08
1.13795e-06
-1.58725e-07
1.45671e-06
-2.37041e-07
1.63949e-06
-2.87056e-07
1.68289e-06
-2.96853e-07
1.55826e-06
-2.85901e-07
1.37457e-06
-2.9271e-07
1.296e-06
-3.23353e-07
1.31056e-06
-3.59771e-07
1.31654e-06
-3.97221e-07
1.26142e-06
-4.33564e-07
1.15665e-06
-4.43605e-07
9.72801e-07
-4.06828e-07
6.55467e-07
-2.77334e-07
1.70019e-07
-1.81021e-07
-2.14756e-07
-1.17048e-07
-5.49607e-07
-1.03683e-07
-8.06924e-07
-1.63715e-07
-1.00649e-06
-2.64163e-07
-1.26808e-06
-3.18824e-07
-1.66487e-06
-2.8758e-07
-2.0502e-06
-2.0439e-07
-2.24121e-06
-1.07665e-07
-2.23371e-06
8.1857e-09
-2.10837e-06
-1.89903e-06
1.90622e-07
-2.88204e-08
1.1644e-06
-8.41101e-08
1.5103e-06
-1.35848e-07
1.69073e-06
-1.71108e-07
1.71628e-06
-1.74694e-07
1.56221e-06
-1.64972e-07
1.36442e-06
-1.68793e-07
1.29912e-06
-1.85732e-07
1.32694e-06
-2.00512e-07
1.33002e-06
-2.10286e-07
1.26901e-06
-2.03688e-07
1.15112e-06
-1.62316e-07
9.28804e-07
-8.04089e-08
5.72497e-07
2.14737e-08
6.71045e-08
1.01798e-07
-2.95987e-07
1.99109e-07
-6.4764e-07
2.58396e-07
-8.66937e-07
2.39711e-07
-9.8852e-07
1.31841e-07
-1.16041e-06
2.87365e-08
-1.56177e-06
2.06816e-08
-2.04233e-06
8.94699e-08
-2.31054e-06
1.93201e-07
-2.33858e-06
3.23853e-07
-2.2394e-06
-2.0663e-06
4.90931e-07
1.4498e-08
1.14685e-06
-8.68249e-09
1.531e-06
-3.71315e-08
1.71682e-06
-5.94093e-08
1.73799e-06
-6.21642e-08
1.56273e-06
-5.17932e-08
1.35205e-06
-4.64391e-08
1.29179e-06
-4.14977e-08
1.31966e-06
-2.6852e-08
1.31307e-06
4.35621e-09
1.23637e-06
5.59601e-08
1.09484e-06
1.31818e-07
8.52196e-07
2.16703e-07
4.84844e-07
2.61567e-07
1.85851e-08
3.3287e-07
-3.68734e-07
3.99991e-07
-7.15719e-07
4.58353e-07
-9.26368e-07
4.85952e-07
-1.01701e-06
4.42259e-07
-1.11736e-06
3.59796e-07
-1.47964e-06
3.36949e-07
-2.01978e-06
3.89474e-07
-2.36361e-06
4.81759e-07
-2.43125e-06
6.00317e-07
-2.35879e-06
-2.20712e-06
7.41261e-07
6.02381e-08
1.08074e-06
6.74558e-08
1.52013e-06
6.25022e-08
1.71942e-06
5.11215e-08
1.74612e-06
4.56575e-08
1.56571e-06
5.6535e-08
1.3378e-06
7.62095e-08
1.26855e-06
1.07822e-07
1.28455e-06
1.52181e-07
1.2652e-06
2.14038e-07
1.17041e-06
2.96587e-07
1.01132e-06
3.89454e-07
7.54987e-07
4.78113e-07
3.92915e-07
5.21746e-07
-2.78022e-08
5.69283e-07
-4.17586e-07
6.01546e-07
-7.48945e-07
6.42907e-07
-9.68698e-07
6.87892e-07
-1.0631e-06
6.97026e-07
-1.12727e-06
6.54675e-07
-1.4377e-06
6.38216e-07
-2.00363e-06
6.79373e-07
-2.40512e-06
7.53467e-07
-2.50614e-06
8.52018e-07
-2.4573e-06
-2.32234e-06
9.66807e-07
1.10147e-07
9.65999e-07
1.47311e-07
1.47897e-06
1.62018e-07
1.70121e-06
1.64086e-07
1.74133e-06
1.53932e-07
1.57215e-06
1.62305e-07
1.32496e-06
1.95383e-07
1.23084e-06
2.49028e-07
1.22653e-06
3.1875e-07
1.19147e-06
4.04871e-07
1.08135e-06
5.07546e-07
9.03621e-07
6.17251e-07
6.4308e-07
7.09815e-07
2.96825e-07
7.63887e-07
-8.45507e-08
7.8684e-07
-4.41899e-07
7.94831e-07
-7.57844e-07
8.24197e-07
-9.99117e-07
8.74225e-07
-1.11418e-06
9.16364e-07
-1.17025e-06
9.14628e-07
-1.43645e-06
9.17193e-07
-2.00652e-06
9.52436e-07
-2.44075e-06
1.00952e-06
-2.56331e-06
1.08559e-06
-2.53419e-06
-2.4127e-06
1.17595e-06
1.6119e-07
7.95138e-07
2.31908e-07
1.40362e-06
2.6681e-07
1.66303e-06
2.8014e-07
1.72461e-06
2.685e-07
1.57946e-06
2.68586e-07
1.32018e-06
3.09558e-07
1.18489e-06
3.8142e-07
1.14989e-06
4.71139e-07
1.09733e-06
5.72498e-07
9.75456e-07
6.86754e-07
7.87209e-07
7.9929e-07
5.26104e-07
8.89643e-07
2.02932e-07
9.37147e-07
-1.34498e-07
9.47785e-07
-4.53877e-07
9.55763e-07
-7.66823e-07
9.91415e-07
-1.03576e-06
1.04911e-06
-1.17294e-06
1.10861e-06
-1.23061e-06
1.14358e-06
-1.4719e-06
1.16907e-06
-2.03228e-06
1.20449e-06
-2.47641e-06
1.24741e-06
-2.60692e-06
1.30319e-06
-2.58992e-06
-2.48101e-06
1.37095e-06
2.08561e-07
5.8197e-07
3.20981e-07
1.2874e-06
3.77282e-07
1.60336e-06
4.02118e-07
1.69607e-06
3.92715e-07
1.58577e-06
3.78416e-07
1.32939e-06
4.13414e-07
1.14471e-06
4.94752e-07
1.06343e-06
5.98716e-07
9.88841e-07
7.11217e-07
8.5942e-07
8.26722e-07
6.67028e-07
9.35337e-07
4.14106e-07
1.01511e-06
1.19327e-07
1.05213e-06
-1.74046e-07
1.06768e-06
-4.70906e-07
1.09583e-06
-7.96008e-07
1.14885e-06
-1.08978e-06
1.21496e-06
-1.24008e-06
1.28263e-06
-1.29913e-06
1.34509e-06
-1.53487e-06
1.39424e-06
-2.08177e-06
1.43273e-06
-2.51522e-06
1.46467e-06
-2.63889e-06
1.50277e-06
-2.62877e-06
-2.52989e-06
1.5515e-06
2.35487e-07
3.34854e-07
4.06842e-07
1.11171e-06
4.90476e-07
1.51644e-06
5.32331e-07
1.65228e-06
5.29711e-07
1.58351e-06
5.01144e-07
1.35409e-06
5.12716e-07
1.12809e-06
5.83888e-07
9.87341e-07
6.89781e-07
8.78165e-07
8.05603e-07
7.38989e-07
9.19347e-07
5.4962e-07
1.01739e-06
3.11722e-07
1.08298e-06
4.95292e-08
1.12353e-06
-2.1717e-07
1.16733e-06
-5.16202e-07
1.22866e-06
-8.58371e-07
1.29974e-06
-1.16185e-06
1.36912e-06
-1.31047e-06
1.43822e-06
-1.36906e-06
1.52223e-06
-1.6194e-06
1.59354e-06
-2.15333e-06
1.63544e-06
-2.55733e-06
1.65833e-06
-2.66237e-06
1.68259e-06
-2.65309e-06
-2.56247e-06
1.71463e-06
2.29418e-07
9.98552e-08
4.76594e-07
8.61648e-07
6.02281e-07
1.38879e-06
6.6562e-07
1.58493e-06
6.81629e-07
1.56594e-06
6.49166e-07
1.38233e-06
6.30237e-07
1.14239e-06
6.66618e-07
9.46159e-07
7.50409e-07
7.89617e-07
8.55088e-07
6.29994e-07
9.5975e-07
4.40776e-07
1.04589e-06
2.20614e-07
1.11322e-06
-2.14533e-08
1.18407e-06
-2.90366e-07
1.27052e-06
-6.04057e-07
1.36298e-06
-9.51823e-07
1.44223e-06
-1.242e-06
1.50463e-06
-1.37376e-06
1.57275e-06
-1.43797e-06
1.67899e-06
-1.72612e-06
1.76908e-06
-2.24377e-06
1.81115e-06
-2.59968e-06
1.82708e-06
-2.67842e-06
1.83866e-06
-2.66529e-06
-2.58061e-06
1.85655e-06
1.7265e-07
-8.38926e-08
5.10204e-07
5.21296e-07
6.99335e-07
1.19726e-06
7.97799e-07
1.48591e-06
8.37276e-07
1.52248e-06
8.22871e-07
1.39364e-06
7.90368e-07
1.1714e-06
7.87621e-07
9.44658e-07
8.30422e-07
7.42608e-07
9.05717e-07
5.50728e-07
9.92308e-07
3.49382e-07
1.07721e-06
1.32268e-07
1.17012e-06
-1.17752e-07
1.27838e-06
-4.00662e-07
1.39455e-06
-7.21454e-07
1.49802e-06
-1.05617e-06
1.56703e-06
-1.31183e-06
1.61301e-06
-1.42061e-06
1.68867e-06
-1.51434e-06
1.82081e-06
-1.85878e-06
1.92349e-06
-2.34671e-06
1.95973e-06
-2.63617e-06
1.96752e-06
-2.68665e-06
1.9673e-06
-2.66528e-06
-2.5873e-06
1.97353e-06
1.12614e-07
-2.00229e-07
4.97911e-07
1.34529e-07
7.6699e-07
9.27062e-07
9.09398e-07
1.34002e-06
9.81673e-07
1.4496e-06
9.99804e-07
1.37262e-06
9.82759e-07
1.18533e-06
9.67357e-07
9.56571e-07
9.80206e-07
7.26275e-07
1.02568e-06
5.01353e-07
1.09585e-06
2.76502e-07
1.18601e-06
3.80346e-08
1.2954e-06
-2.29309e-07
1.41377e-06
-5.20514e-07
1.52954e-06
-8.38201e-07
1.61786e-06
-1.14522e-06
1.65992e-06
-1.35461e-06
1.69254e-06
-1.45396e-06
1.79628e-06
-1.61874e-06
1.95383e-06
-2.01675e-06
2.05689e-06
-2.45012e-06
2.07951e-06
-2.65905e-06
2.07683e-06
-2.68419e-06
2.06535e-06
-2.65424e-06
-2.58661e-06
2.06431e-06
8.83378e-08
-2.91456e-07
4.13059e-07
-1.93325e-07
7.73408e-07
5.64519e-07
9.82003e-07
1.13221e-06
1.09288e-06
1.33497e-06
1.14773e-06
1.31621e-06
1.16273e-06
1.16769e-06
1.16371e-06
9.52968e-07
1.17471e-06
7.12248e-07
1.20965e-06
4.64002e-07
1.26945e-06
2.13274e-07
1.35422e-06
-4.82639e-08
1.45099e-06
-3.27817e-07
1.55307e-06
-6.23728e-07
1.64543e-06
-9.31344e-07
1.69847e-06
-1.1989e-06
1.71214e-06
-1.36893e-06
1.7592e-06
-1.5017e-06
1.90928e-06
-1.76938e-06
2.07978e-06
-2.1877e-06
2.16465e-06
-2.53524e-06
2.16748e-06
-2.66217e-06
2.15234e-06
-2.66935e-06
2.13374e-06
-2.63599e-06
-2.58325e-06
2.13002e-06
3.64589e-08
-3.27972e-07
2.33122e-07
-3.91174e-07
6.83926e-07
1.13867e-07
9.87488e-07
8.24767e-07
1.15482e-06
1.16784e-06
1.24474e-06
1.224e-06
1.29167e-06
1.11856e-06
1.31776e-06
9.24597e-07
1.3426e-06
6.85117e-07
1.37932e-06
4.2475e-07
1.43349e-06
1.57753e-07
1.50245e-06
-1.19567e-07
1.5799e-06
-4.06313e-07
1.65815e-06
-7.02806e-07
1.71371e-06
-9.87554e-07
1.72817e-06
-1.21392e-06
1.74088e-06
-1.38221e-06
1.84153e-06
-1.60293e-06
2.03271e-06
-1.96107e-06
2.18894e-06
-2.3443e-06
2.23739e-06
-2.58401e-06
2.22097e-06
-2.64597e-06
2.19501e-06
-2.64373e-06
2.17515e-06
-2.6164e-06
-2.58158e-06
2.17308e-06
6.66428e-08
-3.94639e-07
1.38551e-07
-4.6352e-07
4.90867e-07
-2.42074e-07
9.01298e-07
4.15138e-07
1.14676e-06
9.19688e-07
1.28075e-06
1.08822e-06
1.35608e-06
1.04168e-06
1.40335e-06
8.75229e-07
1.44232e-06
6.44075e-07
1.48478e-06
3.80475e-07
1.5353e-06
1.0458e-07
1.59466e-06
-1.79328e-07
1.65718e-06
-4.70034e-07
1.71016e-06
-7.5656e-07
1.72589e-06
-1.00385e-06
1.7223e-06
-1.21084e-06
1.78303e-06
-1.44345e-06
1.95642e-06
-1.77681e-06
2.15512e-06
-2.16021e-06
2.2612e-06
-2.45075e-06
2.26588e-06
-2.58895e-06
2.23834e-06
-2.61874e-06
2.20941e-06
-2.61497e-06
2.19383e-06
-2.60131e-06
-2.58505e-06
2.19704e-06
6.90886e-08
-4.61565e-07
9.98376e-08
-4.94242e-07
2.64069e-07
-4.05784e-07
6.91379e-07
-1.56387e-08
1.0371e-06
5.73474e-07
1.23638e-06
8.87584e-07
1.34737e-06
9.28909e-07
1.41569e-06
8.04896e-07
1.46763e-06
5.90126e-07
1.51656e-06
3.29246e-07
1.56888e-06
5.17426e-08
1.62371e-06
-2.36704e-07
1.675e-06
-5.21908e-07
1.69072e-06
-7.72917e-07
1.68004e-06
-9.93717e-07
1.71802e-06
-1.24931e-06
1.87239e-06
-1.59827e-06
2.09042e-06
-1.99528e-06
2.24248e-06
-2.31265e-06
2.28505e-06
-2.49365e-06
2.2609e-06
-2.5651e-06
2.22737e-06
-2.5854e-06
2.20315e-06
-2.59122e-06
2.19612e-06
-2.59436e-06
-2.59534e-06
2.20594e-06
7.43293e-08
-5.34198e-07
1.17841e-07
-5.37151e-07
1.43614e-07
-4.34263e-07
3.86572e-07
-2.58065e-07
7.872e-07
1.69251e-07
1.0703e-06
6.02928e-07
1.23537e-06
7.61934e-07
1.3357e-06
7.0284e-07
1.40696e-06
5.1677e-07
1.46734e-06
2.67392e-07
1.52523e-06
-9.69599e-09
1.57883e-06
-2.89765e-07
1.59889e-06
-5.43328e-07
1.5853e-06
-7.60085e-07
1.61536e-06
-1.02429e-06
1.76844e-06
-1.40279e-06
2.00241e-06
-1.83261e-06
2.19228e-06
-2.18552e-06
2.26959e-06
-2.39032e-06
2.26105e-06
-2.48542e-06
2.22622e-06
-2.53052e-06
2.19686e-06
-2.55639e-06
2.18378e-06
-2.57817e-06
2.18626e-06
-2.59746e-06
-2.61167e-06
2.20245e-06
5.87946e-08
-5.91008e-07
8.48787e-08
-5.63662e-07
7.70797e-08
-4.26856e-07
1.23308e-07
-3.13664e-07
4.19604e-07
-1.28891e-07
7.48191e-07
2.71349e-07
9.73395e-07
5.34333e-07
1.11951e-06
5.54797e-07
1.22197e-06
4.12483e-07
1.29954e-06
1.87385e-07
1.3691e-06
-7.79605e-08
1.4131e-06
-3.36771e-07
1.4179e-06
-5.48116e-07
1.45614e-06
-7.98559e-07
1.62399e-06
-1.1924e-06
1.88347e-06
-1.66253e-06
2.10629e-06
-2.05572e-06
2.20949e-06
-2.28901e-06
2.21887e-06
-2.4e-06
2.19483e-06
-2.46166e-06
2.16906e-06
-2.50501e-06
2.15579e-06
-2.54326e-06
2.15568e-06
-2.57862e-06
2.16687e-06
-2.60855e-06
-2.63284e-06
2.18753e-06
1.15671e-08
-6.02343e-07
-1.07938e-08
-5.41359e-07
-4.74762e-08
-3.95414e-07
-9.17975e-08
-2.69168e-07
-4.2951e-08
-1.92229e-07
2.43236e-07
-2.105e-08
5.17708e-07
2.56904e-07
7.14899e-07
3.55054e-07
8.58918e-07
2.67172e-07
9.63454e-07
8.38308e-08
1.05002e-06
-1.67535e-07
1.11115e-06
-3.94937e-07
1.19908e-06
-6.3616e-07
1.41662e-06
-1.01602e-06
1.7262e-06
-1.50199e-06
1.98919e-06
-1.92564e-06
2.12126e-06
-2.18797e-06
2.14968e-06
-2.31766e-06
2.13903e-06
-2.38959e-06
2.12128e-06
-2.44415e-06
2.11154e-06
-2.49548e-06
2.11226e-06
-2.54431e-06
2.12171e-06
-2.58795e-06
2.13801e-06
-2.62558e-06
-2.65697e-06
2.16213e-06
-6.93815e-08
-5.30264e-07
-1.81358e-07
-4.29465e-07
-2.87157e-07
-2.88636e-07
-3.74935e-07
-1.94759e-07
-4.30846e-07
-1.37264e-07
-4.12294e-07
-4.72874e-08
-2.23784e-07
6.49869e-08
3.22692e-08
9.95155e-08
2.4559e-07
5.66655e-08
4.21784e-07
-9.04668e-08
6.17518e-07
-3.56469e-07
8.37971e-07
-6.15749e-07
1.15371e-06
-9.50185e-07
1.53421e-06
-1.3958e-06
1.8446e-06
-1.81211e-06
2.00949e-06
-2.09047e-06
2.05968e-06
-2.23821e-06
2.06123e-06
-2.31935e-06
2.05246e-06
-2.38101e-06
2.04922e-06
-2.44109e-06
2.05379e-06
-2.50026e-06
2.06449e-06
-2.55506e-06
2.07975e-06
-2.60383e-06
2.10058e-06
-2.64613e-06
-2.68408e-06
2.1272e-06
-1.81716e-07
-3.49125e-07
-3.74639e-07
-2.36052e-07
-5.40586e-07
-1.2844e-07
-6.69853e-07
-5.83215e-08
-7.85245e-07
-2.72209e-08
-8.37831e-07
8.14673e-09
-7.88622e-07
2.00128e-08
-6.33855e-07
-4.90125e-08
-3.52125e-07
-2.1591e-07
6.74031e-08
-4.97645e-07
4.87631e-07
-7.74949e-07
9.10929e-07
-1.03389e-06
1.33767e-06
-1.37546e-06
1.67755e-06
-1.73479e-06
1.87046e-06
-2.00456e-06
1.94365e-06
-2.16345e-06
1.95951e-06
-2.25402e-06
1.96152e-06
-2.3214e-06
1.96714e-06
-2.38672e-06
1.97844e-06
-2.45252e-06
1.99345e-06
-2.5154e-06
2.01092e-06
-2.57282e-06
2.03153e-06
-2.62417e-06
2.05553e-06
-2.67088e-06
-2.71327e-06
2.08483e-06
-2.70208e-07
-7.40014e-08
-4.98161e-07
-6.72768e-09
-6.85934e-07
6.70468e-08
-8.45108e-07
9.82816e-08
-9.56499e-07
9.178e-08
-9.86036e-07
4.46485e-08
-8.76594e-07
-8.12352e-08
-5.93189e-07
-3.22876e-07
-1.67819e-07
-6.3082e-07
2.79561e-07
-9.38453e-07
7.06041e-07
-1.19427e-06
1.12122e-06
-1.44738e-06
1.46771e-06
-1.71987e-06
1.68664e-06
-1.95254e-06
1.78994e-06
-2.10721e-06
1.82894e-06
-2.20208e-06
1.84736e-06
-2.27226e-06
1.86513e-06
-2.3391e-06
1.88588e-06
-2.40749e-06
1.9081e-06
-2.47481e-06
1.93063e-06
-2.53802e-06
1.95381e-06
-2.59596e-06
1.97817e-06
-2.64914e-06
2.00564e-06
-2.69791e-06
-2.74444e-06
2.03636e-06
-2.49894e-07
1.82615e-07
-4.4241e-07
1.93114e-07
-6.08301e-07
2.34638e-07
-7.4608e-07
2.44851e-07
-8.26631e-07
1.82951e-07
-7.97882e-07
2.69497e-08
-6.5338e-07
-2.13014e-07
-3.7888e-07
-5.85048e-07
3.79247e-08
-1.03709e-06
4.63993e-07
-1.35659e-06
8.63169e-07
-1.59047e-06
1.20897e-06
-1.78938e-06
1.45556e-06
-1.96442e-06
1.59777e-06
-2.09343e-06
1.66996e-06
-2.1786e-06
1.71136e-06
-2.24298e-06
1.7448e-06
-2.30541e-06
1.77742e-06
-2.37156e-06
1.80919e-06
-2.4392e-06
1.83913e-06
-2.50474e-06
1.86729e-06
-2.56622e-06
1.89447e-06
-2.62338e-06
1.92236e-06
-2.67662e-06
1.95128e-06
-2.72756e-06
-2.77617e-06
1.98323e-06
-1.41424e-07
3.34122e-07
-3.01887e-07
3.58692e-07
-4.43315e-07
3.84715e-07
-5.49048e-07
3.63272e-07
-5.85872e-07
2.27666e-07
-5.25653e-07
-1.21804e-08
-4.27303e-07
-2.94407e-07
-1.68236e-07
-8.31537e-07
2.19349e-07
-1.41594e-06
6.04996e-07
-1.73714e-06
9.45049e-07
-1.92594e-06
1.21003e-06
-2.05183e-06
1.38655e-06
-2.13895e-06
1.49203e-06
-2.19755e-06
1.55838e-06
-2.24404e-06
1.60958e-06
-2.29358e-06
1.65583e-06
-2.35126e-06
1.69878e-06
-2.41428e-06
1.73777e-06
-2.47805e-06
1.77269e-06
-2.53961e-06
1.80443e-06
-2.59797e-06
1.83448e-06
-2.6533e-06
1.86377e-06
-2.70647e-06
1.89433e-06
-2.75756e-06
-2.80839e-06
1.92617e-06
-5.8317e-08
4.02421e-07
-1.47498e-07
4.57717e-07
-2.38291e-07
4.85058e-07
-3.08705e-07
4.35225e-07
-2.98511e-07
2.45095e-07
-2.19621e-07
-6.88887e-08
-1.7206e-07
-3.26031e-07
6.61351e-08
-1.0603e-06
3.98968e-07
-1.74267e-06
7.22628e-07
-2.0565e-06
9.89238e-07
-2.18975e-06
1.18319e-06
-2.24346e-06
1.3119e-06
-2.26569e-06
1.39883e-06
-2.28312e-06
1.46646e-06
-2.31073e-06
1.52622e-06
-2.3527e-06
1.58067e-06
-2.40526e-06
1.62922e-06
-2.46254e-06
1.67168e-06
-2.52033e-06
1.70893e-06
-2.57676e-06
1.74246e-06
-2.63145e-06
1.77368e-06
-2.68468e-06
1.80438e-06
-2.73666e-06
1.83472e-06
-2.78856e-06
-2.83986e-06
1.8665e-06
2.26436e-08
3.85904e-07
6.7913e-09
4.78572e-07
-2.01312e-08
5.13302e-07
-1.41517e-08
4.51957e-07
9.434e-08
1.43272e-07
1.56671e-07
-1.07888e-07
1.46886e-07
-3.03329e-07
3.14871e-07
-1.22272e-06
5.81255e-07
-2.00544e-06
8.27153e-07
-2.29975e-06
1.01688e-06
-2.37746e-06
1.15197e-06
-2.37641e-06
1.24915e-06
-2.36149e-06
1.32737e-06
-2.36023e-06
1.39715e-06
-2.37968e-06
1.46091e-06
-2.41584e-06
1.51776e-06
-2.46166e-06
1.56721e-06
-2.51166e-06
1.60998e-06
-2.56288e-06
1.64755e-06
-2.6142e-06
1.68151e-06
-2.66534e-06
1.71336e-06
-2.71632e-06
1.74372e-06
-2.76752e-06
1.7743e-06
-2.81851e-06
-2.87068e-06
1.80482e-06
1.0914e-07
2.82019e-07
1.49067e-07
4.42353e-07
1.83193e-07
4.88638e-07
2.3009e-07
3.97028e-07
3.47613e-07
4.28511e-08
3.63496e-07
-1.19729e-07
4.01739e-07
-3.38814e-07
5.47055e-07
-1.36601e-06
7.5188e-07
-2.20862e-06
9.16503e-07
-2.46313e-06
1.03842e-06
-2.49784e-06
1.13041e-06
-2.46767e-06
1.20831e-06
-2.43826e-06
1.28034e-06
-2.43137e-06
1.34794e-06
-2.44657e-06
1.40944e-06
-2.47677e-06
1.4636e-06
-2.5154e-06