/*--------------------------------*- C++ -*----------------------------------*\
  =========                 |
  \\      /  F ield         | OpenFOAM: The Open Source CFD Toolbox
   \\    /   O peration     | Website:  https://openfoam.org
    \\  /    A nd           | Version:  13
     \\/     M anipulation  |
\*---------------------------------------------------------------------------*/
FoamFile
{
    format      ascii;
    class       surfaceScalarField;
    location    "20";
    object      phi;
}
// * * * * * * * * * * * * * * * * * * * * * * * * * * * * * * * * * * * * * //

dimensions      [0 3 -1 0 0 0 0];

internalField   nonuniform List<scalar> 
12590
(
7.96827e-13
-7.96813e-13
1.68992e-12
-8.93071e-13
2.51002e-12
-8.20085e-13
3.34783e-12
-8.37791e-13
4.20779e-12
-8.59936e-13
5.03329e-12
-8.25483e-13
5.6549e-12
-6.21594e-13
6.13651e-12
-4.81592e-13
6.44346e-12
-3.06924e-13
6.54539e-12
-1.0191e-13
6.4184e-12
1.27008e-13
6.04962e-12
3.68809e-13
5.44179e-12
6.07845e-13
4.61044e-12
8.31375e-13
3.57217e-12
1.03829e-12
2.40953e-12
1.16267e-12
1.23547e-12
1.17409e-12
1.17695e-13
1.1178e-12
-8.79101e-13
9.96822e-13
-1.71572e-12
8.36642e-13
-2.32519e-12
6.09502e-13
-2.60039e-12
2.75231e-13
-2.44423e-12
-1.56116e-13
-1.53171e-12
-9.12482e-13
-1.5317e-12
6.52669e-13
-1.44946e-12
1.39096e-12
-1.63133e-12
2.0826e-12
-1.5117e-12
2.76258e-12
-1.51775e-12
3.41919e-12
-1.51652e-12
4.02756e-12
-1.43382e-12
4.57716e-12
-1.17117e-12
4.91233e-12
-8.16733e-13
5.11415e-12
-5.08705e-13
5.16207e-12
-1.49804e-13
5.04675e-12
2.4236e-13
4.76532e-12
6.50268e-13
4.32822e-12
1.04498e-12
3.77377e-12
1.38586e-12
3.17276e-12
1.63934e-12
2.51479e-12
1.82067e-12
1.79379e-12
1.89512e-12
1.06312e-12
1.8485e-12
3.78168e-13
1.68181e-12
-1.82037e-13
1.39689e-12
-5.82457e-13
1.00996e-12
-8.11429e-13
5.04244e-13
-7.28159e-13
-2.39337e-13
-5.45889e-13
-1.0947e-12
-2.07758e-12
5.40048e-13
-1.98948e-12
1.11422e-12
-2.20548e-12
1.64357e-12
-2.04102e-12
2.15175e-12
-2.0259e-12
2.63903e-12
-2.00376e-12
3.11652e-12
-1.91128e-12
3.66758e-12
-1.7222e-12
4.08556e-12
-1.23468e-12
4.37331e-12
-7.96429e-13
4.60338e-12
-3.79836e-13
4.75775e-12
8.80223e-14
4.81706e-12
5.90994e-13
4.75639e-12
1.10568e-12
4.54512e-12
1.59717e-12
4.1499e-12
2.0346e-12
3.59259e-12
2.37802e-12
2.90373e-12
2.58402e-12
2.13455e-12
2.61772e-12
1.36068e-12
2.45572e-12
6.62259e-13
2.09536e-12
1.01502e-13
1.57077e-12
-2.44651e-13
8.50448e-13
-3.7513e-13
-1.08796e-13
-2.4786e-13
-1.22192e-12
-2.32544e-12
4.63118e-13
-2.45258e-12
8.59194e-13
-2.60153e-12
1.18708e-12
-2.36888e-12
1.46778e-12
-2.30658e-12
1.70569e-12
-2.24164e-12
1.92689e-12
-2.13245e-12
2.18015e-12
-1.97543e-12
2.68764e-12
-1.74215e-12
3.00994e-12
-1.11869e-12
3.26882e-12
-6.38689e-13
3.52134e-12
-1.64463e-13
3.72581e-12
3.8656e-13
3.82939e-12
1.00213e-12
3.77924e-12
1.64735e-12
3.55026e-12
2.26362e-12
3.14194e-12
2.78638e-12
2.57908e-12
3.14692e-12
1.91029e-12
3.28655e-12
1.2161e-12
3.14995e-12
5.92398e-13
2.7191e-12
1.09289e-13
2.05392e-12
-2.18464e-13
1.17825e-12
-3.36267e-13
9.06115e-15
-1.6185e-13
-1.39628e-12
-2.48728e-12
4.02261e-13
-2.85482e-12
6.33934e-13
-2.83318e-12
7.64648e-13
-2.49957e-12
8.13326e-13
-2.35524e-12
8.03312e-13
-2.23161e-12
7.74658e-13
-2.10377e-12
7.8001e-13
-1.98076e-12
8.79747e-13
-1.84186e-12
1.3719e-12
-1.61082e-12
1.57973e-12
-8.46493e-13
1.82774e-12
-4.12439e-13
2.09862e-12
1.15704e-13
2.34943e-12
7.51355e-13
2.51997e-12
1.47684e-12
2.53728e-12
2.24636e-12
2.34787e-12
2.97582e-12
1.96413e-12
3.5307e-12
1.45213e-12
3.7986e-12
8.90203e-13
3.71192e-12
3.74191e-13
3.23516e-12
-1.3705e-14
2.44187e-12
-2.43092e-13
1.40769e-12
-3.06905e-13
7.29389e-14
-1.65306e-13
-1.53782e-12
-2.65258e-12
3.63749e-13
-3.21856e-12
4.64568e-13
-2.93398e-12
4.11865e-13
-2.44685e-12
2.40766e-13
-2.18412e-12
-2.02191e-14
-1.9706e-12
-3.19103e-13
-1.80487e-12
-5.91847e-13
-1.70799e-12
-7.66024e-13
-1.66766e-12
-7.52575e-13
-1.62424e-12
-1.71598e-13
-1.42744e-12
4.56778e-14
-6.29688e-13
3.58259e-13
-1.96848e-13
7.07827e-13
4.01818e-13
1.03174e-12
1.15296e-12
1.26812e-12
2.01e-12
1.36008e-12
2.8839e-12
1.2451e-12
3.64572e-12
9.26253e-13
4.11748e-12
4.93431e-13
4.14479e-12
5.72076e-14
3.67143e-12
-2.88449e-13
2.78757e-12
-4.87283e-13
1.60657e-12
-4.6835e-13
5.406e-14
-2.49279e-13
-1.75683e-12
-2.90185e-12
3.3082e-13
-3.54937e-12
3.09121e-13
-2.91228e-12
8.65045e-14
-2.22423e-12
-3.00722e-13
-1.79688e-12
-8.06917e-13
-1.4644e-12
-1.36759e-12
-1.24419e-12
-1.90549e-12
-1.17008e-12
-2.33743e-12
-1.23571e-12
-2.58218e-12
-1.37947e-12
-2.52006e-12
-1.48954e-12
-1.90851e-12
-1.24122e-12
-1.61262e-12
-4.92706e-13
-1.15899e-12
-5.17891e-14
-6.26677e-13
6.20681e-13
-1.05344e-13
1.4887e-12
3.08557e-13
2.47003e-12
5.36275e-13
3.41804e-12
5.16331e-13
4.13746e-12
2.4949e-13
4.41167e-12
-1.22293e-13
4.04326e-12
-4.30715e-13
3.09604e-12
-6.21089e-13
1.797e-12
-5.48587e-13
-1.8379e-14
-2.56506e-13
-2.04885e-12
-3.15834e-12
2.99279e-13
-3.84865e-12
1.64252e-13
-2.77725e-12
-2.25184e-13
-1.8348e-12
-8.20805e-13
-1.20126e-12
-1.59069e-12
-6.94509e-13
-2.43358e-12
-4.01299e-13
-3.23604e-12
-3.67612e-13
-3.89287e-12
-5.78869e-13
-4.31661e-12
-9.55723e-13
-4.46718e-12
-1.33895e-12
-4.14033e-12
-1.56805e-12
-3.5513e-12
-1.08172e-12
-3.00698e-12
-5.96078e-13
-2.282e-12
-1.04277e-13
-1.46391e-12
6.70633e-13
-6.72173e-13
1.67833e-12
-2.90119e-14
2.77491e-12
3.54253e-13
3.75423e-12
4.03671e-13
4.36229e-12
1.19969e-13
4.327e-12
-2.42277e-13
3.45833e-12
-4.78716e-13
2.03348e-12
-5.06088e-13
9.04696e-15
-3.08164e-13
-2.24671e-12
-3.4665e-12
2.62223e-13
-4.11089e-12
1.5622e-14
-2.53067e-12
-5.39884e-13
-1.27931e-12
-1.33639e-12
-4.04772e-13
-2.29165e-12
2.60742e-13
-3.32118e-12
6.28216e-13
-4.33379e-12
6.44996e-13
-5.22789e-12
3.15228e-13
-5.87062e-12
-3.12999e-13
-6.13954e-12
-1.07003e-12
-6.02108e-12
-1.6865e-12
-5.24149e-12
-1.86131e-12
-4.61357e-12
-1.22398e-12
-3.68719e-12
-1.03064e-12
-2.57228e-12
-4.44255e-13
-1.37968e-12
4.8575e-13
-2.77619e-13
1.67287e-12
5.59378e-13
2.91727e-12
9.91227e-13
3.93047e-12
9.42475e-13
4.37579e-12
4.50735e-13
3.95011e-12
1.20833e-14
2.47218e-12
-1.66706e-13
1.87893e-13
-1.30045e-13
-2.28332e-12
-3.59653e-12
2.26423e-13
-4.33733e-12
-1.3213e-13
-2.17214e-12
-8.07605e-13
-6.03862e-13
-1.71328e-12
5.00872e-13
-2.76441e-12
1.31185e-12
-3.88524e-12
1.74902e-12
-4.94092e-12
1.70065e-12
-5.89133e-12
1.26562e-12
-6.68397e-12
4.79624e-13
-7.14595e-12
-6.08057e-13
-7.11855e-12
-1.71391e-12
-6.55127e-12
-2.42859e-12
-5.52413e-12
-2.25113e-12
-4.51053e-12
-2.04423e-12
-3.17828e-12
-1.7765e-12
-1.63349e-12
-1.05903e-12
-5.74522e-14
9.68524e-14
1.30198e-12
1.55785e-12
2.19136e-12
3.04111e-12
2.4388e-12
4.12838e-12
2.01871e-12
4.37023e-12
1.134e-12
3.35692e-12
3.23772e-13
9.98165e-13
-4.24135e-14
-1.91709e-12
-3.63894e-12
2.15983e-13
-4.55335e-12
-1.98705e-13
-1.7575e-12
-9.33846e-13
1.31235e-13
-1.89206e-12
1.45905e-12
-2.96415e-12
2.38389e-12
-4.05114e-12
2.83598e-12
-5.06839e-12
2.71786e-12
-5.88622e-12
2.08341e-12
-6.54681e-12
1.14018e-12
-7.03269e-12
-1.22205e-13
-7.13097e-12
-1.61566e-12
-6.63733e-12
-2.92225e-12
-5.56125e-12
-3.32723e-12
-4.45656e-12
-3.14893e-12
-2.93661e-12
-3.29645e-12
-1.15655e-12
-2.8391e-12
7.98825e-13
-1.85852e-12
2.65465e-12
-2.97973e-13
4.01202e-12
1.68376e-12
4.53557e-12
3.60485e-12
4.09416e-12
4.81165e-12
2.87519e-12
4.57592e-12
1.21497e-12
2.65842e-12
6.85534e-14
-7.70641e-13
-3.57038e-12
2.18246e-13
-4.77165e-12
-1.73952e-13
-1.36536e-12
-8.80261e-13
8.37486e-13
-1.76588e-12
2.34461e-12
-2.69792e-12
3.31586e-12
-3.56733e-12
3.70533e-12
-4.37388e-12
3.52434e-12
-4.9719e-12
2.68137e-12
-5.30451e-12
1.47273e-12
-5.54859e-12
1.21821e-13
-5.61662e-12
-1.54768e-12
-5.27562e-12
-3.26329e-12
-4.19611e-12
-4.40678e-12
-2.88903e-12
-4.45604e-12
-1.41347e-12
-4.77205e-12
4.16439e-13
-4.66903e-12
2.49591e-12
-3.93801e-12
4.69025e-12
-2.49233e-12
6.46021e-12
-8.62106e-14
7.28149e-12
2.78356e-12
6.79321e-12
5.29992e-12
5.08961e-12
6.27952e-12
2.74164e-12
5.0064e-12
2.67716e-13
1.70329e-12
-3.30267e-12
2.34881e-13
-5.00658e-12
-9.4284e-14
-1.03626e-12
-6.27377e-13
1.37051e-12
-1.24193e-12
2.95908e-12
-1.84688e-12
3.92073e-12
-2.3541e-12
4.21248e-12
-2.65197e-12
3.82214e-12
-2.71168e-12
2.741e-12
-2.5681e-12
1.32907e-12
-2.26396e-12
-1.82395e-13
-1.89368e-12
-1.91803e-12
-1.45693e-12
-3.70011e-12
-8.4986e-13
-5.01391e-12
4.21494e-13
-5.72745e-12
2.16224e-12
-6.51285e-12
3.85208e-12
-6.35892e-12
5.61195e-12
-5.69792e-12
7.5731e-12
-4.45352e-12
9.35307e-12
-1.86622e-12
1.05269e-11
1.60967e-12
1.02235e-11
5.60334e-12
8.01334e-12
8.48966e-12
4.5254e-12
8.49433e-12
8.82411e-13
5.34625e-12
-2.42027e-12
2.61344e-13
-5.268e-12
6.7543e-14
-8.4254e-13
-2.27228e-13
1.66519e-12
-4.51754e-13
3.18352e-12
-5.22846e-13
3.99174e-12
-3.29583e-13
4.01912e-12
2.56107e-13
3.23635e-12
1.06585e-12
1.93116e-12
2.10692e-12
2.87898e-13
3.25022e-12
-1.32579e-12
4.39731e-12
-3.06521e-12
5.59109e-12
-4.89398e-12
6.34148e-12
-5.76438e-12
7.55212e-12
-6.93817e-12
8.7046e-12
-7.6654e-12
1.02435e-11
-7.89785e-12
1.17703e-11
-7.22486e-12
1.30654e-11
-5.74866e-12
1.4356e-11
-3.15683e-12
1.50054e-11
9.60205e-13
1.43737e-11
6.23501e-12
1.17653e-11
1.1098e-11
6.9136e-12
1.33459e-11
1.6204e-12
1.06394e-11
-7.99887e-13
3.19939e-13
-5.58801e-12
3.78989e-13
-9.01686e-13
5.14242e-13
1.52984e-12
8.82685e-13
2.81498e-12
1.66194e-12
3.21237e-12
2.9279e-12
2.75306e-12
4.62876e-12
1.53538e-12
6.70413e-12
-1.44313e-13
9.16611e-12
-2.17418e-12
1.20467e-11
-4.20654e-12
1.50679e-11
-6.08648e-12
1.75524e-11
-7.37856e-12
1.95966e-11
-7.80867e-12
2.11254e-11
-8.46703e-12
2.22329e-11
-8.77304e-12
2.28962e-11
-8.56121e-12
2.34551e-11
-7.78376e-12
2.36597e-11
-5.95335e-12
2.33782e-11
-2.87545e-12
2.29239e-11
1.41449e-12
2.13303e-11
7.82852e-12
1.73186e-11
1.51097e-11
1.06256e-11
2.00388e-11
2.72931e-12
1.85356e-11
1.92939e-12
4.07641e-13
-5.99575e-12
8.28524e-13
-1.32269e-12
1.56678e-12
7.91452e-13
2.79482e-12
1.58682e-12
4.61448e-12
1.39259e-12
7.03066e-12
3.36763e-13
1.01355e-11
-1.56959e-12
1.39437e-11
-3.95262e-12
1.80717e-11
-6.30221e-12
2.22478e-11
-8.38274e-12
2.62524e-11
-1.00912e-11
3.01239e-11
-1.12502e-11
3.44313e-11
-1.21161e-11
3.81419e-11
-1.21777e-11
4.05922e-11
-1.12234e-11
4.14997e-11
-9.46877e-12
4.10425e-11
-7.32662e-12
4.00923e-11
-5.0032e-12
3.89669e-11
-1.7501e-12
3.6294e-11
4.08734e-12
3.2406e-11
1.17165e-11
2.66059e-11
2.09097e-11
1.68526e-11
2.9792e-11
4.83415e-12
3.0554e-11
6.7635e-12
5.048e-13
-6.50069e-12
1.34873e-12
-2.16679e-12
2.75599e-12
-6.15986e-13
4.8669e-12
-5.24245e-13
7.89641e-12
-1.63706e-12
1.19715e-11
-3.73845e-12
1.68737e-11
-6.4719e-12
2.24072e-11
-9.48618e-12
2.83049e-11
-1.22e-11
3.39492e-11
-1.40271e-11
3.99814e-11
-1.61234e-11
4.60376e-11
-1.73064e-11
5.15473e-11
-1.7626e-11
5.63862e-11
-1.70166e-11
6.06168e-11
-1.5454e-11
6.38973e-11
-1.27492e-11
6.56242e-11
-9.05352e-12
6.47382e-11
-4.11729e-12
6.1452e-11
1.53609e-12
5.74069e-11
8.13246e-12
5.12908e-11
1.78325e-11
4.25082e-11
2.96923e-11
2.93334e-11
4.29666e-11
9.46232e-12
5.0425e-11
1.62258e-11
5.65559e-13
-7.06644e-12
1.78819e-12
-3.38967e-12
4.05188e-12
-2.87991e-12
7.49209e-12
-3.96467e-12
1.20616e-11
-6.2067e-12
1.76936e-11
-9.37062e-12
2.41637e-11
-1.2942e-11
3.12427e-11
-1.65652e-11
3.87115e-11
-1.96688e-11
4.73824e-11
-2.2698e-11
5.61997e-11
-2.49407e-11
6.52158e-11
-2.63225e-11
7.41709e-11
-2.6581e-11
8.20333e-11
-2.4879e-11
8.85116e-11
-2.19323e-11
9.36189e-11
-1.78564e-11
9.77274e-11
-1.3162e-11
1.00502e-10
-6.89178e-12
1.00055e-10
1.98326e-12
9.45376e-11
1.36497e-11
8.4902e-11
2.74681e-11
7.08909e-11
4.37034e-11
5.15264e-11
6.2331e-11
2.02021e-11
8.17492e-11
3.64278e-11
7.24688e-13
-7.79142e-12
2.66332e-12
-5.32864e-12
5.92137e-12
-6.13828e-12
1.06635e-11
-8.70708e-12
1.6857e-11
-1.24004e-11
2.4327e-11
-1.68407e-11
3.26789e-11
-2.1294e-11
4.18351e-11
-2.57214e-11
5.24607e-11
-3.02944e-11
6.36963e-11
-3.39336e-11
7.53047e-11
-3.6549e-11
8.69768e-11
-3.79945e-11
9.8537e-11
-3.81411e-11
1.10338e-10
-3.66803e-11
1.21796e-10
-3.33898e-11
1.31719e-10
-2.77792e-11
1.39392e-10
-2.0835e-11
1.45133e-10
-1.26325e-11
1.50065e-10
-2.94827e-12
1.55194e-10
8.52035e-12
1.52617e-10
3.00449e-11
1.33875e-10
6.24454e-11
1.02832e-10
9.33736e-11
5.18267e-11
1.32755e-10
8.82544e-11
9.83516e-13
-8.77533e-12
3.5475e-12
-7.89308e-12
7.94873e-12
-1.05399e-11
1.41466e-11
-1.49053e-11
2.21107e-11
-2.03648e-11
3.11977e-11
-2.59277e-11
4.23345e-11
-3.24309e-11
5.47465e-11
-3.81334e-11
6.81763e-11
-4.37241e-11
8.23304e-11
-4.80876e-11
9.69373e-11
-5.11558e-11
1.11683e-10
-5.27403e-11
1.26224e-10
-5.26818e-11
1.40333e-10
-5.07889e-11
1.53927e-10
-4.69839e-11
1.67762e-10
-4.16136e-11
1.80183e-10
-3.32561e-11
1.91419e-10
-2.38687e-11
2.00978e-10
-1.25071e-11
2.05485e-10
4.01345e-12
2.09227e-10
2.63027e-11
2.155e-10
5.61731e-11
2.1598e-10
9.28928e-11
1.91791e-10
1.56944e-10
2.80045e-10
1.17878e-12
-9.9546e-12
4.35328e-12
-1.10681e-11
9.31642e-12
-1.55036e-11
1.59839e-11
-2.15732e-11
2.41907e-11
-2.85719e-11
3.41618e-11
-3.5899e-11
4.53549e-11
-4.36241e-11
5.7961e-11
-5.07395e-11
7.15354e-11
-5.72985e-11
8.6098e-11
-6.265e-11
1.01534e-10
-6.6592e-11
1.17733e-10
-6.89385e-11
1.34583e-10
-6.95315e-11
1.5203e-10
-6.82367e-11
1.70023e-10
-6.4976e-11
1.88266e-10
-5.98569e-11
2.07342e-10
-5.23316e-11
2.2667e-10
-4.31968e-11
2.44322e-10
-3.01593e-11
2.63417e-10
-1.50812e-11
2.83836e-10
5.88326e-12
3.05911e-10
3.40977e-11
3.32439e-10
6.63655e-11
3.96132e-10
9.32504e-11
4.28567e-11
6.3332e-10
1.31835e-12
-1.12736e-11
4.9023e-12
-1.46528e-11
1.05827e-11
-2.11846e-11
1.82435e-11
-2.92345e-11
2.7751e-11
-3.80797e-11
3.91342e-11
-4.72826e-11
5.20102e-11
-5.65001e-11
6.64688e-11
-6.51982e-11
8.22161e-11
-7.30457e-11
9.92453e-11
-7.96791e-11
1.17484e-10
-8.4831e-11
1.36872e-10
-8.8326e-11
1.57365e-10
-9.00248e-11
1.78965e-10
-8.98357e-11
2.01717e-10
-8.77282e-11
2.2556e-10
-8.36999e-11
2.50924e-10
-7.7696e-11
2.77431e-10
-6.97034e-11
3.06268e-10
-5.89964e-11
3.37005e-10
-4.58185e-11
3.72086e-10
-2.91978e-11
4.15274e-10
-9.09001e-12
4.67399e-10
1.42396e-11
5.25799e-10
3.48508e-11
3.75999e-11
5.31055e-10
1.44459e-12
-1.27189e-11
5.41368e-12
-1.86226e-11
1.1724e-11
-2.74956e-11
2.02521e-11
-3.77633e-11
3.08687e-11
-4.86967e-11
4.34593e-11
-5.98735e-11
5.7847e-11
-7.0888e-11
7.3956e-11
-8.13073e-11
9.16709e-11
-9.07606e-11
1.10931e-10
-9.89396e-11
1.31705e-10
-1.05604e-10
1.53966e-10
-1.10587e-10
1.77715e-10
-1.13774e-10
2.02982e-10
-1.15103e-10
2.29823e-10
-1.14569e-10
2.58318e-10
-1.12195e-10
2.88625e-10
-1.08003e-10
3.20891e-10
-1.0197e-10
3.55775e-10
-9.38798e-11
3.93462e-10
-8.35057e-11
4.34631e-10
-7.03674e-11
4.79536e-10
-5.39957e-11
5.26117e-10
-3.23413e-11
5.64954e-10
-3.98667e-12
3.58004e-11
5.66754e-10
1.55174e-12
-1.42714e-11
5.84891e-12
-2.29207e-11
1.26893e-11
-3.43368e-11
2.19391e-11
-4.70138e-11
3.34603e-11
-6.02184e-11
4.7116e-11
-7.35295e-11
6.27726e-11
-8.65449e-11
8.0331e-11
-9.88658e-11
9.97158e-11
-1.10145e-10
1.20876e-10
-1.201e-10
1.43787e-10
-1.28515e-10
1.68444e-10
-1.35244e-10
1.94862e-10
-1.40191e-10
2.23069e-10
-1.4331e-10
2.53104e-10
-1.44604e-10
2.85017e-10
-1.44108e-10
3.18863e-10
-1.41849e-10
3.54701e-10
-1.37808e-10
3.92628e-10
-1.31807e-10
4.32566e-10
-1.23443e-10
4.74038e-10
-1.1184e-10
5.1575e-10
-9.5708e-11
5.54941e-10
-7.15332e-11
5.83131e-10
-3.21764e-11
3.06036e-11
5.88327e-10
1.63711e-12
-1.59093e-11
6.20354e-12
-2.7488e-11
1.34772e-11
-4.16113e-11
2.33175e-11
-5.68548e-11
3.5581e-11
-7.24825e-11
5.01283e-11
-8.80772e-11
6.6834e-11
-1.03251e-10
8.56003e-11
-1.17632e-10
1.06356e-10
-1.30901e-10
1.29057e-10
-1.428e-10
1.5368e-10
-1.53138e-10
1.80219e-10
-1.61784e-10
2.08681e-10
-1.68652e-10
2.39072e-10
-1.73702e-10
2.71392e-10
-1.76924e-10
3.05611e-10
-1.78327e-10
3.41659e-10
-1.77896e-10
3.79389e-10
-1.75539e-10
4.1855e-10
-1.70969e-10
4.58659e-10
-1.63551e-10
4.98846e-10
-1.52027e-10
5.37192e-10
-1.34054e-10
5.71294e-10
-1.05635e-10
5.97681e-10
-5.85641e-11
1.5744e-11
6.12541e-10
1.69992e-12
-1.76102e-11
6.4778e-12
-3.22669e-11
1.40958e-11
-4.92302e-11
2.44073e-11
-6.7167e-11
3.72667e-11
-8.53425e-11
5.2533e-11
-1.03344e-10
7.00812e-11
-1.20799e-10
8.98122e-11
-1.37363e-10
1.11652e-10
-1.52742e-10
1.35553e-10
-1.66701e-10
1.61484e-10
-1.7907e-10
1.89429e-10
-1.89728e-10
2.19371e-10
-1.98595e-10
2.51288e-10
-2.05619e-10
2.85127e-10
-2.10763e-10
3.20784e-10
-2.13984e-10
3.58081e-10
-2.15193e-10
3.96725e-10
-2.14182e-10
4.36267e-10
-2.10512e-10
4.76044e-10
-2.03328e-10
5.15094e-10
-1.91078e-10
5.52127e-10
-1.71087e-10
5.8555e-10
-1.39058e-10
6.15239e-10
-8.82537e-11
-1.08107e-11
6.41794e-10
1.74122e-12
-1.93524e-11
6.67595e-12
-3.72027e-11
1.45554e-11
-5.71106e-11
2.52286e-11
-7.78411e-11
3.85482e-11
-9.86627e-11
5.43709e-11
-1.19167e-10
7.25691e-11
-1.38998e-10
9.30386e-11
-1.57833e-10
1.15699e-10
-1.75402e-10
1.40493e-10
-1.91495e-10
1.67377e-10
-2.05954e-10
1.96317e-10
-2.18668e-10
2.27275e-10
-2.29552e-10
2.60193e-10
-2.38537e-10
2.94979e-10
-2.45549e-10
3.31479e-10
-2.50485e-10
3.69454e-10
-2.53168e-10
4.08549e-10
-2.53278e-10
4.48277e-10
-2.5024e-10
4.88005e-10
-2.43056e-10
5.26997e-10
-2.3007e-10
5.6457e-10
-2.08661e-10
6.00452e-10
-1.74939e-10
6.35815e-10
-1.23617e-10
-4.8643e-11
6.73647e-10
1.76303e-12
-2.11164e-11
6.80412e-12
-4.22448e-11
1.48698e-11
-6.51772e-11
2.58049e-11
-8.87771e-11
3.94606e-11
-1.12319e-10
5.56911e-11
-1.35398e-10
7.43646e-11
-1.57671e-10
9.53701e-11
-1.78839e-10
1.18619e-10
-1.98651e-10
1.4404e-10
-2.16916e-10
1.71578e-10
-2.33492e-10
2.01181e-10
-2.4827e-10
2.32788e-10
-2.6116e-10
2.66321e-10
-2.7207e-10
3.01661e-10
-2.80889e-10
3.38634e-10
-2.87458e-10
3.7699e-10
-2.91524e-10
4.16391e-10
-2.9268e-10
4.56415e-10
-2.90264e-10
4.9659e-10
-2.83231e-10
5.36501e-10
-2.69981e-10
5.76011e-10
-2.48172e-10
6.15667e-10
-2.14595e-10
6.57324e-10
-1.65274e-10
-9.59617e-11
7.04642e-10
1.76751e-12
-2.28849e-11
6.87109e-12
-4.73495e-11
1.50552e-11
-7.33623e-11
2.61625e-11
-9.98853e-11
4.00431e-11
-1.262e-10
5.65489e-11
-1.51904e-10
7.55434e-11
-1.76666e-10
9.69084e-11
-2.00204e-10
1.20546e-10
-2.22289e-10
1.46375e-10
-2.42745e-10
1.74326e-10
-2.61443e-10
2.04332e-10
-2.78276e-10
2.36319e-10
-2.93147e-10
2.70195e-10
-3.05946e-10
3.05836e-10
-3.1653e-10
3.43073e-10
-3.24695e-10
3.81684e-10
-3.30135e-10
4.21396e-10
-3.32392e-10
4.61908e-10
-3.30775e-10
5.02948e-10
-3.24273e-10
5.44407e-10
-3.1144e-10
5.86546e-10
-2.90311e-10
6.30338e-10
-2.58387e-10
6.77863e-10
-2.128e-10
-1.50785e-10
7.32686e-10
1.75757e-12
-2.46436e-11
6.88546e-12
-5.24786e-11
1.51286e-11
-8.16065e-11
2.63293e-11
-1.11087e-10
4.03372e-11
-1.40209e-10
5.70025e-11
-1.6857e-10
7.61848e-11
-1.95849e-10
9.77599e-11
-2.21779e-10
1.21622e-10
-2.4615e-10
1.4768e-10
-2.68803e-10
1.75854e-10
-2.89617e-10
2.06069e-10
-3.08491e-10
2.38244e-10
-3.25322e-10
2.72284e-10
-3.39987e-10
3.08075e-10
-3.52321e-10
3.45471e-10
-3.62091e-10
3.84301e-10
-3.68966e-10
4.24381e-10
-3.72471e-10
4.65542e-10
-3.71937e-10
5.07707e-10
-3.66437e-10
5.51003e-10
-3.54736e-10
5.95948e-10
-3.35257e-10
6.43691e-10
-3.0613e-10
6.96265e-10
-2.65374e-10
-2.11283e-10
7.56763e-10
1.73594e-12
-2.63806e-11
6.85587e-12
-5.75997e-11
1.51072e-11
-8.9859e-11
2.63333e-11
-1.22314e-10
4.03844e-11
-1.5426e-10
5.71102e-11
-1.85296e-10
7.63677e-11
-2.15106e-10
9.80283e-11
-2.4344e-10
1.2198e-10
-2.70102e-10
1.48126e-10
-2.9495e-10
1.76381e-10
-3.17872e-10
2.06663e-10
-3.38773e-10
2.38893e-10
-3.57551e-10
2.72982e-10
-3.74076e-10
3.08834e-10
-3.88173e-10
3.46341e-10
-3.99598e-10
3.85392e-10
-4.08016e-10
4.2589e-10
-4.12969e-10
4.67794e-10
-4.13841e-10
5.11181e-10
-4.09825e-10
5.56349e-10
-3.99904e-10
6.03954e-10
-3.82862e-10
6.55176e-10
-3.57352e-10
7.11863e-10
-3.22061e-10
-2.76014e-10
7.76594e-10
1.70516e-12
-2.80869e-11
6.7905e-12
-6.26862e-11
1.50073e-11
-9.80769e-11
2.62011e-11
-1.33508e-10
4.02243e-11
-1.68284e-10
5.69273e-11
-2.02e-10
7.61661e-11
-2.34345e-10
9.78101e-11
-2.65084e-10
1.21744e-10
-2.94036e-10
1.47868e-10
-3.21073e-10
1.76093e-10
-3.46097e-10
2.0634e-10
-3.6902e-10
2.38532e-10
-3.89743e-10
2.72596e-10
-4.0814e-10
3.08458e-10
-4.24035e-10
3.46051e-10
-4.37191e-10
3.85322e-10
-4.47287e-10
4.26257e-10
-4.53904e-10
4.68916e-10
-4.56501e-10
5.13494e-10
-4.54402e-10
5.60392e-10
-4.46803e-10
6.10326e-10
-4.32797e-10
6.64423e-10
-4.11449e-10
7.24303e-10
-3.81941e-10
-3.4379e-10
7.92079e-10
1.6675e-12
-2.97556e-11
6.69664e-12
-6.77166e-11
1.48437e-11
-1.06225e-10
2.59574e-11
-1.44623e-10
3.98932e-11
-1.82221e-10
5.65039e-11
-2.18611e-10
7.56465e-11
-2.53488e-10
9.71902e-11
-2.86627e-10
1.21019e-10
-3.17865e-10
1.47033e-10
-3.47087e-10
1.75145e-10
-3.74209e-10
2.05278e-10
-3.99153e-10
2.37366e-10
-4.21831e-10
2.7135e-10
-4.42124e-10
3.07183e-10
-4.59868e-10
3.44835e-10
-4.74843e-10
3.84307e-10
-4.8676e-10
4.25652e-10
-4.95249e-10
4.69006e-10
-4.99855e-10
5.1464e-10
-5.00036e-10
5.63012e-10
-4.95176e-10
6.14841e-10
-4.84625e-10
6.71161e-10
-4.67769e-10
7.33365e-10
-4.44145e-10
-4.13595e-10
8.03169e-10
1.62487e-12
-3.13816e-11
6.58064e-12
-7.26737e-11
1.46292e-11
-1.14275e-10
2.56233e-11
-1.55618e-10
3.94227e-11
-1.96021e-10
5.58835e-11
-2.35072e-10
7.48655e-11
-2.7247e-10
9.62399e-11
-3.08002e-10
1.19893e-10
-3.41518e-10
1.45726e-10
-3.7292e-10
1.73656e-10
-4.02138e-10
2.03612e-10
-4.29109e-10
2.35539e-10
-4.53758e-10
2.69394e-10
-4.75979e-10
3.05155e-10
-4.95629e-10
3.42826e-10
-5.12514e-10
3.82449e-10
-5.26383e-10
4.24128e-10
-5.36928e-10
4.68051e-10
-5.43779e-10
5.14532e-10
-5.46517e-10
5.64048e-10
-5.44692e-10
6.17285e-10
-5.37862e-10
6.75171e-10
-5.25655e-10
7.38884e-10
-5.07858e-10
-4.84528e-10
8.09817e-10
1.57885e-12
-3.29617e-11
6.44778e-12
-7.75439e-11
1.43748e-11
-1.22203e-10
2.52171e-11
-1.66461e-10
3.88391e-11
-2.09644e-10
5.51019e-11
-2.51335e-10
7.38695e-11
-2.91238e-10
9.50165e-11
-3.29149e-10
1.18433e-10
-3.64934e-10
1.44024e-10
-3.98511e-10
1.71711e-10
-4.29826e-10
2.01433e-10
-4.58831e-10
2.33144e-10
-4.85468e-10
2.66817e-10
-5.09652e-10
3.02451e-10
-5.31263e-10
3.40076e-10
-5.50139e-10
3.79767e-10
-5.66074e-10
4.2166e-10
-5.7882e-10
4.65974e-10
-5.88093e-10
5.13038e-10
-5.93582e-10
5.63323e-10
-5.94977e-10
6.17462e-10
-5.92001e-10
6.7627e-10
-5.84463e-10
7.40735e-10
-5.72324e-10
-5.55779e-10
8.11987e-10
1.53051e-12
-3.44934e-11
6.30221e-12
-8.23169e-11
1.4089e-11
-1.29991e-10
2.47529e-11
-1.77126e-10
3.81637e-11
-2.23055e-10
5.41878e-11
-2.6736e-10
7.26947e-11
-3.09745e-10
9.35639e-11
-3.50018e-10
1.1669e-10
-3.8806e-10
1.41983e-10
-4.23804e-10
1.69372e-10
-4.57214e-10
1.98801e-10
-4.8826e-10
2.30236e-10
-5.16903e-10
2.63664e-10
-5.4308e-10
2.99098e-10
-5.66698e-10
3.36589e-10
-5.8763e-10
3.7623e-10
-6.05716e-10
4.18179e-10
-6.20768e-10
4.62664e-10
-6.32578e-10
5.10014e-10
-6.40932e-10
5.60671e-10
-6.45634e-10
6.15204e-10
-6.46534e-10
6.74316e-10
-6.43576e-10
7.38833e-10
-6.36841e-10
-6.26609e-10
8.09662e-10
1.4808e-12
-3.59755e-11
6.14708e-12
-8.69845e-11
1.37786e-11
-1.37623e-10
2.42419e-11
-1.8759e-10
3.74125e-11
-2.36226e-10
5.3163e-11
-2.8311e-10
7.13685e-11
-3.27951e-10
9.19145e-11
-3.70564e-10
1.14701e-10
-4.10846e-10
1.39644e-10
-4.48747e-10
1.66677e-10
-4.84247e-10
1.95753e-10
-5.17336e-10
2.26845e-10
-5.47995e-10
2.5995e-10
-5.76185e-10
2.95094e-10
-6.01841e-10
3.32337e-10
-6.24873e-10
3.71787e-10
-6.45165e-10
4.13602e-10
-6.62584e-10
4.58013e-10
-6.7699e-10
5.0533e-10
-6.88249e-10
5.55953e-10
-6.96257e-10
6.10385e-10
-7.00966e-10
6.69221e-10
-7.02412e-10
7.33141e-10
-7.00761e-10
-6.96341e-10
8.02873e-10
1.43051e-12
-3.74073e-11
5.98474e-12
-9.15401e-11
1.34483e-11
-1.45088e-10
2.36923e-11
-1.97835e-10
3.65978e-11
-2.49132e-10
5.20436e-11
-2.98556e-10
6.99112e-11
-3.45818e-10
9.00919e-11
-3.90744e-10
1.12491e-10
-4.33245e-10
1.37031e-10
-4.73286e-10
1.6365e-10
-5.10866e-10
1.92306e-10
-5.45993e-10
2.22981e-10
-5.78669e-10
2.55676e-10
-6.08879e-10
2.90423e-10
-6.36589e-10
3.27289e-10
-6.6174e-10
3.66382e-10
-6.84258e-10
4.07858e-10
-7.0406e-10
4.51933e-10
-7.21065e-10
4.98889e-10
-7.35206e-10
5.49082e-10
-7.4645e-10
6.0294e-10
-7.54824e-10
6.60961e-10
-7.60433e-10
7.23696e-10
-7.63496e-10
-7.64365e-10
7.91719e-10
1.38007e-12
-3.87886e-11
5.81683e-12
-9.59782e-11
1.31017e-11
-1.52374e-10
2.31101e-11
-2.07844e-10
3.57284e-11
-2.61751e-10
5.08415e-11
-3.1367e-10
6.83372e-11
-3.63314e-10
8.81127e-11
-4.1052e-10
1.10079e-10
-4.55211e-10
1.34162e-10
-4.97369e-10
1.60307e-10
-5.3701e-10
1.88474e-10
-5.7416e-10
2.18649e-10
-6.08843e-10
2.50837e-10
-6.41067e-10
2.85071e-10
-6.70823e-10
3.21417e-10
-6.98086e-10
3.59977e-10
-7.22818e-10
4.00896e-10
-7.4498e-10
4.4437e-10
-7.64539e-10
4.90646e-10
-7.81481e-10
5.40027e-10
-7.95832e-10
5.92873e-10
-8.0767e-10
6.49588e-10
-8.17149e-10
7.10609e-10
-8.24517e-10
-8.30137e-10
7.76381e-10
1.32967e-12
-4.01196e-11
5.64439e-12
-1.00294e-10
1.27413e-11
-1.59472e-10
2.24995e-11
-2.17604e-10
3.48106e-11
-2.74063e-10
4.95653e-11
-3.28425e-10
6.66574e-11
-3.80406e-10
8.59895e-11
-4.29852e-10
1.07477e-10
-4.76698e-10
1.31052e-10
-5.20943e-10
1.5666e-10
-5.62617e-10
1.84266e-10
-6.01766e-10
2.13855e-10
-6.38432e-10
2.45433e-10
-6.72645e-10
2.79031e-10
-7.04421e-10
3.14708e-10
-7.33763e-10
3.52556e-10
-7.60666e-10
3.92703e-10
-7.85127e-10
4.35317e-10
-8.07153e-10
4.80607e-10
-8.26772e-10
5.28826e-10
-8.44051e-10
5.80262e-10
-8.59106e-10
6.35235e-10
-8.72122e-10
6.94079e-10
-8.83362e-10
-8.93185e-10
7.57128e-10
1.27947e-12
-4.14004e-11
5.46806e-12
-1.04484e-10
1.23685e-11
-1.66374e-10
2.18636e-11
-2.271e-10
3.38493e-11
-2.86049e-10
4.82218e-11
-3.42798e-10
6.48803e-11
-3.97065e-10
8.37326e-11
-4.48704e-10
1.04698e-10
-4.97663e-10
1.27711e-10
-5.43955e-10
1.52721e-10
-5.87626e-10
1.79692e-10
-6.28737e-10
2.08609e-10
-6.67348e-10
2.39473e-10
-7.03509e-10
2.72311e-10
-7.37258e-10
3.07172e-10
-7.68623e-10
3.44133e-10
-7.97627e-10
3.833e-10
-8.24295e-10
4.24812e-10
-8.48665e-10
4.68838e-10
-8.70798e-10
5.15577e-10
-8.9079e-10
5.65253e-10
-9.08783e-10
6.18106e-10
-9.24976e-10
6.74383e-10
-9.39638e-10
-9.53116e-10
7.34313e-10
1.22944e-12
-4.26312e-11
5.28826e-12
-1.08545e-10
1.19847e-11
-1.73072e-10
2.12047e-11
-2.3632e-10
3.28484e-11
-2.97693e-10
4.68166e-11
-3.56766e-10
6.30137e-11
-4.13262e-10
8.13515e-11
-4.67041e-10
1.01753e-10
-5.18065e-10
1.24154e-10
-5.66356e-10
1.48505e-10
-6.11977e-10
1.7477e-10
-6.55001e-10
2.02928e-10
-6.95507e-10
2.32979e-10
-7.33559e-10
2.64938e-10
-7.69217e-10
2.98842e-10
-8.02527e-10
3.3475e-10
-8.33536e-10
3.72747e-10
-8.62291e-10
4.12937e-10
-8.88855e-10
4.5545e-10
-9.13311e-10
5.00435e-10
-9.35775e-10
5.48054e-10
-9.56402e-10
5.98476e-10
-9.75398e-10
6.51864e-10
-9.93026e-10
-1.00961e-09
7.08362e-10
1.1796e-12
-4.38122e-11
5.10527e-12
-1.12472e-10
1.15909e-11
-1.79559e-10
2.0525e-11
-2.45255e-10
3.18114e-11
-3.0898e-10
4.53552e-11
-3.7031e-10
6.1065e-11
-4.28971e-10
7.88561e-11
-4.84832e-10
9.86542e-11
-5.37862e-10
1.20396e-10
-5.88098e-10
1.44031e-10
-6.35611e-10
1.69521e-10
-6.80491e-10
1.96842e-10
-7.22827e-10
2.25984e-10
-7.62701e-10
2.56952e-10
-8.00186e-10
2.89771e-10
-8.35346e-10
3.24479e-10
-8.68244e-10
3.61135e-10
-8.98947e-10
3.99813e-10
-9.27533e-10
4.40602e-10
-9.54101e-10
4.83605e-10
-9.78777e-10
5.28925e-10
-1.00172e-09
5.76668e-10
-1.02314e-09
6.26923e-10
-1.04328e-09
-1.06245e-09
6.79757e-10
1.1299e-12
-4.49435e-11
4.91939e-12
-1.16263e-10
1.11879e-11
-1.85828e-10
1.98265e-11
-2.53895e-10
3.07421e-11
-3.19896e-10
4.38433e-11
-3.83412e-10
5.90424e-11
-4.4417e-10
7.62577e-11
-5.02047e-10
9.54163e-11
-5.57021e-10
1.16455e-10
-6.09136e-10
1.39322e-10
-6.58478e-10
1.63976e-10
-7.05144e-10
1.90385e-10
-7.49236e-10
2.18533e-10
-7.90848e-10
2.48413e-10
-8.30065e-10
2.80032e-10
-8.66965e-10
3.13411e-10
-9.01623e-10
3.48582e-10
-9.34118e-10
3.85589e-10
-9.6454e-10
4.24483e-10
-9.92996e-10
4.65321e-10
-1.01962e-09
5.08158e-10
-1.04456e-09
5.53039e-10
-1.06802e-09
5.99992e-10
-1.09023e-09
-1.11147e-09
6.49013e-10
1.08035e-12
-4.60252e-11
4.73096e-12
-1.19915e-10
1.0777e-11
-1.91876e-10
1.91116e-11
-2.62231e-10
2.96444e-11
-3.3043e-10
4.22873e-11
-3.96055e-10
5.69552e-11
-4.58838e-10
7.35688e-11
-5.1866e-10
9.20562e-11
-5.75507e-10
1.12354e-10
-6.29433e-10
1.34407e-10
-6.8053e-10
1.58169e-10
-7.28906e-10
1.83604e-10
-7.74671e-10
2.10683e-10
-8.17928e-10
2.3939e-10
-8.58771e-10
2.69714e-10
-8.97289e-10
3.01657e-10
-9.33566e-10
3.35226e-10
-9.67687e-10
3.70436e-10
-9.9975e-10
4.07304e-10
-1.02986e-09
4.45845e-10
-1.05816e-09
4.86069e-10
-1.08478e-09
5.2797e-10
-1.10992e-09
5.7152e-10
-1.13378e-09
-1.15661e-09
6.16658e-10
1.03096e-12
-4.70576e-11
4.54044e-12
-1.23426e-10
1.03593e-11
-1.97696e-10
1.8383e-11
-2.70255e-10
2.8523e-11
-3.4057e-10
4.06941e-11
-4.08226e-10
5.48137e-11
-4.72957e-10
7.08038e-11
-5.3465e-10
8.85931e-11
-5.93296e-10
1.08117e-10
-6.48956e-10
1.29317e-10
-7.0173e-10
1.52142e-10
-7.51731e-10
1.76549e-10
-7.99077e-10
2.02499e-10
-8.43878e-10
2.29963e-10
-8.86235e-10
2.58916e-10
-9.26242e-10
2.8934e-10
-9.63989e-10
3.21219e-10
-9.99566e-10
3.5454e-10
-1.03307e-09
3.89289e-10
-1.06461e-09
4.25446e-10
-1.09431e-09
4.6298e-10
-1.12232e-09
5.01841e-10
-1.14878e-09
5.41954e-10
-1.1739e-09
-1.19786e-09
5.8321e-10
9.81811e-13
-4.80408e-11
4.34837e-12
-1.26794e-10
9.93652e-12
-2.03285e-10
1.76436e-11
-2.77963e-10
2.73831e-11
-3.5031e-10
3.90719e-11
-4.19915e-10
5.26293e-11
-4.86514e-10
6.79786e-11
-5.49999e-10
8.50482e-11
-6.10365e-10
1.03772e-10
-6.67679e-10
1.24088e-10
-7.22045e-10
1.4594e-10
-7.73582e-10
1.69276e-10
-8.22413e-10
1.94051e-10
-8.68652e-10
2.2022e-10
-9.12405e-10
2.47746e-10
-9.53767e-10
2.7659e-10
-9.92833e-10
3.06717e-10
-1.02969e-09
3.3809e-10
-1.06444e-09
3.70667e-10
-1.09719e-09
4.04395e-10
-1.12804e-09
4.39209e-10
-1.15713e-09
4.75024e-10
-1.1846e-09
5.11726e-10
-1.2106e-09
-1.2353e-09
5.49165e-10
9.32975e-13
-4.89752e-11
4.15545e-12
-1.30018e-10
9.51035e-12
-2.08641e-10
1.68969e-11
-2.8535e-10
2.62303e-11
-3.59644e-10
3.74292e-11
-4.31114e-10
5.04147e-11
-4.995e-10
6.51105e-11
-5.64694e-10
8.14447e-11
-6.26699e-10
9.93487e-11
-6.85582e-10
1.18758e-10
-7.41453e-10
1.3961e-10
-7.94434e-10
1.61847e-10
-8.4465e-10
1.85412e-10
-8.92217e-10
2.10251e-10
-9.37243e-10
2.36311e-10
-9.79827e-10
2.63539e-10
-1.02006e-09
2.9188e-10
-1.05804e-09
3.21276e-10
-1.09384e-09
3.51659e-10
-1.12757e-09
3.82952e-10
-1.15934e-09
4.15062e-10