/*--------------------------------*- C++ -*----------------------------------*\
  =========                 |
  \\      /  F ield         | OpenFOAM: The Open Source CFD Toolbox
   \\    /   O peration     | Website:  https://openfoam.org
    \\  /    A nd           | Version:  13
     \\/     M anipulation  |
\*---------------------------------------------------------------------------*/
FoamFile
{
    format      ascii;
    class       volVectorField;
    location    "20";
    object      U;
}
// * * * * * * * * * * * * * * * * * * * * * * * * * * * * * * * * * * * * * //

dimensions      [0 1 -1 0 0 0 0];

internalField   nonuniform List<vector> 
6440
(
(4.59802e-07 -9.33052e-07 0)
(1.25802e-06 -1.08948e-06 0)
(2.14982e-06 -1.0719e-06 -9.79918e-22)
(2.92794e-06 -1.25148e-06 9.7757e-22)
(3.77677e-06 -1.54955e-06 0)
(4.60016e-06 -1.90676e-06 -1.79154e-21)
(5.29742e-06 -2.28726e-06 1.78307e-21)
(5.81817e-06 -2.65091e-06 0)
(6.17465e-06 -2.98932e-06 3.10296e-21)
(6.34716e-06 -3.2787e-06 -3.08138e-21)
(6.30973e-06 -3.4821e-06 -2.78203e-21)
(6.05431e-06 -3.56922e-06 1.17721e-22)
(5.5887e-06 -3.51465e-06 9.61198e-23)
(4.9358e-06 -3.29745e-06 2.49662e-21)
(4.1464e-06 -2.92435e-06 2.36091e-21)
(3.306e-06 -2.48496e-06 -2.33506e-21)
(2.33671e-06 -1.97312e-06 0)
(1.21717e-06 -1.33953e-06 4.66563e-21)
(5.02855e-08 -6.14139e-07 1.40773e-22)
(-9.75293e-07 1.40151e-07 -4.68454e-21)
(-1.64376e-06 7.46591e-07 4.99806e-21)
(-1.95798e-06 1.09123e-06 -1.00605e-20)
(-2.12854e-06 1.1267e-06 5.05817e-21)
(-1.89634e-06 3.88375e-07 -5.33313e-21)
(-4.19406e-07 -1.03067e-06 -5.36542e-23)
(4.009e-07 -2.50161e-06 0)
(1.06157e-06 -2.86313e-06 0)
(1.80909e-06 -2.74848e-06 -1.04067e-21)
(2.49977e-06 -2.98992e-06 1.03828e-21)
(3.20971e-06 -3.37458e-06 0)
(3.89076e-06 -3.80518e-06 -1.92533e-21)
(4.51123e-06 -4.26216e-06 1.91658e-21)
(5.014e-06 -4.6857e-06 0)
(5.37439e-06 -5.07804e-06 0)
(5.59619e-06 -5.41837e-06 0)
(5.67408e-06 -5.6778e-06 0)
(5.5984e-06 -5.82432e-06 -2.92393e-21)
(5.38503e-06 -5.84023e-06 2.89849e-21)
(5.03492e-06 -5.71317e-06 0)
(4.4209e-06 -5.38659e-06 2.60435e-21)
(3.53865e-06 -4.86808e-06 -2.57688e-21)
(2.52661e-06 -4.24151e-06 0)
(1.46007e-06 -3.49807e-06 0)
(4.35844e-07 -2.67565e-06 5.19636e-21)
(-4.28921e-07 -1.81016e-06 -5.13017e-21)
(-1.07875e-06 -9.89812e-07 5.50087e-21)
(-1.48514e-06 -3.84373e-07 -5.42549e-21)
(-1.78088e-06 -2.68738e-07 -5.86799e-21)
(-2.0864e-06 -1.19895e-06 -2.34933e-22)
(-2.05045e-07 -3.48762e-06 4.66314e-21)
(2.91772e-07 -3.66135e-06 0)
(8.6704e-07 -4.17485e-06 0)
(1.42342e-06 -3.99639e-06 -1.0736e-21)
(1.93776e-06 -4.20409e-06 1.07131e-21)
(2.45356e-06 -4.52297e-06 0)
(2.95726e-06 -4.85933e-06 -1.99963e-21)
(3.48929e-06 -5.23558e-06 3.92259e-21)
(3.95176e-06 -5.62201e-06 -1.92194e-21)
(4.27614e-06 -5.9464e-06 3.54998e-21)
(4.50317e-06 -6.23964e-06 -3.52794e-21)
(4.61436e-06 -6.47618e-06 -3.22072e-21)
(4.58895e-06 -6.61236e-06 1.31214e-22)
(4.39637e-06 -6.61569e-06 3.04059e-21)
(4.00842e-06 -6.47145e-06 2.80828e-21)
(3.40654e-06 -6.16789e-06 -6.22251e-23)
(2.61296e-06 -5.66144e-06 -2.69326e-21)
(1.68663e-06 -4.97876e-06 0)
(6.98461e-07 -4.16323e-06 5.33811e-21)
(-2.56901e-07 -3.2782e-06 -5.27719e-21)
(-1.0679e-06 -2.40468e-06 0)
(-1.71351e-06 -1.60322e-06 5.84136e-21)
(-2.18767e-06 -1.02356e-06 -1.18606e-20)
(-2.61291e-06 -8.84202e-07 6.01333e-21)
(-3.02263e-06 -1.69829e-06 -6.5832e-21)
(-3.05819e-07 -4.21776e-06 5.17356e-21)
(2.22657e-07 -4.44487e-06 0)
(6.87748e-07 -4.88808e-06 0)
(1.02799e-06 -4.60021e-06 -1.11036e-21)
(1.31523e-06 -4.69699e-06 1.10816e-21)
(1.58297e-06 -4.8781e-06 0)
(1.82745e-06 -5.08075e-06 -2.07291e-21)
(2.09055e-06 -5.35039e-06 4.06932e-21)
(2.45131e-06 -5.74482e-06 -1.99541e-21)
(2.76794e-06 -6.16879e-06 0)
(2.92847e-06 -6.52538e-06 0)
(3.02543e-06 -6.86421e-06 0)
(3.03695e-06 -7.12313e-06 -3.17566e-21)
(2.90203e-06 -7.23434e-06 3.15173e-21)
(2.58909e-06 -7.15874e-06 2.89244e-21)
(2.09004e-06 -6.85937e-06 -2.86744e-21)
(1.41276e-06 -6.32891e-06 0)
(5.92127e-07 -5.60248e-06 5.42133e-21)
(-3.03907e-07 -4.74016e-06 -5.36613e-21)
(-1.17697e-06 -3.82637e-06 0)
(-1.94706e-06 -2.94109e-06 0)
(-2.6991e-06 -2.08069e-06 0)
(-3.37925e-06 -1.38666e-06 0)
(-3.84764e-06 -1.13842e-06 0)
(-4.13577e-06 -1.60806e-06 -7.07115e-21)
(-5.28295e-07 -4.27908e-06 -1.45393e-22)
(1.75108e-07 -5.00316e-06 0)
(5.25461e-07 -5.18905e-06 0)
(6.53447e-07 -4.74998e-06 -1.15015e-21)
(7.07666e-07 -4.69978e-06 1.14804e-21)
(7.19181e-07 -4.73717e-06 0)
(6.95334e-07 -4.83268e-06 -2.1484e-21)
(6.76856e-07 -5.04183e-06 4.21931e-21)
(7.32285e-07 -5.41776e-06 -2.06994e-21)
(9.37841e-07 -6.01531e-06 0)
(1.09372e-06 -6.65385e-06 0)
(1.12385e-06 -7.18904e-06 0)
(1.13832e-06 -7.64594e-06 -3.28748e-21)
(1.05364e-06 -7.95237e-06 3.26441e-21)
(8.4219e-07 -8.02879e-06 2.97104e-21)
(4.90801e-07 -7.84041e-06 -2.94708e-21)
(-4.28429e-08 -7.38009e-06 0)
(-7.36596e-07 -6.69439e-06 5.49507e-21)
(-1.52712e-06 -5.83463e-06 -5.44279e-21)
(-2.33577e-06 -4.91036e-06 0)
(-3.09512e-06 -4.01157e-06 0)
(-3.90263e-06 -3.10507e-06 0)
(-4.71473e-06 -2.23482e-06 0)
(-5.16682e-06 -1.7435e-06 0)
(-5.32525e-06 -1.72441e-06 -7.45387e-21)
(-8.58097e-07 -4.27774e-06 6.01151e-21)
(1.48003e-07 -5.41335e-06 0)
(3.84779e-07 -5.19634e-06 0)
(3.24467e-07 -4.54673e-06 -1.1928e-21)
(1.64598e-07 -4.30298e-06 1.19076e-21)
(-8.02068e-08 -4.1733e-06 0)
(-3.85056e-07 -4.1617e-06 -2.22851e-21)
(-6.993e-07 -4.33951e-06 4.3781e-21)
(-9.79157e-07 -4.74731e-06 -2.14865e-21)
(-1.13446e-06 -5.41547e-06 3.98471e-21)
(-1.06891e-06 -6.35201e-06 -3.9648e-21)
(-9.67116e-07 -7.29453e-06 0)
(-9.88209e-07 -8.08416e-06 -3.41562e-21)
(-1.04483e-06 -8.70531e-06 1.61405e-22)
(-1.14483e-06 -9.07611e-06 6.27494e-21)
(-1.38049e-06 -9.12206e-06 -3.04274e-21)
(-1.80654e-06 -8.81836e-06 0)
(-2.35702e-06 -8.2316e-06 5.56068e-21)
(-3.01107e-06 -7.46064e-06 6.45152e-23)
(-3.75761e-06 -6.57504e-06 1.86169e-22)
(-4.50098e-06 -5.66466e-06 -5.65422e-21)
(-5.30902e-06 -4.69666e-06 0)
(-6.14623e-06 -3.64357e-06 0)
(-6.58055e-06 -2.80163e-06 0)
(-6.62413e-06 -2.19153e-06 -7.74152e-21)
(-1.26332e-06 -4.37981e-06 6.31819e-21)
(1.32856e-07 -5.72234e-06 0)
(2.71527e-07 -4.99011e-06 0)
(5.30969e-08 -4.06897e-06 -1.23859e-21)
(-2.94987e-07 -3.59039e-06 1.23662e-21)
(-7.70595e-07 -3.2731e-06 2.37832e-21)
(-1.33885e-06 -3.14554e-06 -4.68561e-21)
(-1.94376e-06 -3.28763e-06 4.54641e-21)
(-2.52389e-06 -3.74832e-06 -2.23195e-21)
(-3.0128e-06 -4.52596e-06 0)
(-3.2966e-06 -5.62432e-06 3.95954e-21)
(-3.34756e-06 -6.9779e-06 -3.93915e-21)
(-3.35714e-06 -8.24987e-06 -3.56253e-21)
(-3.39837e-06 -9.31707e-06 3.5408e-21)
(-3.41424e-06 -1.0125e-05 3.18209e-21)
(-3.4681e-06 -1.05855e-05 -3.1597e-21)
(-3.65735e-06 -1.06272e-05 0)
(-4.06033e-06 -1.02423e-05 5.64875e-21)
(-4.64745e-06 -9.55797e-06 -5.60169e-21)
(-5.30583e-06 -8.72727e-06 0)
(-5.98747e-06 -7.84609e-06 5.97459e-21)
(-6.74694e-06 -6.80548e-06 -5.91774e-21)
(-7.53864e-06 -5.53001e-06 0)
(-7.90482e-06 -4.27858e-06 0)
(-7.80114e-06 -3.02257e-06 -7.95139e-21)
(-1.64604e-06 -4.62316e-06 -2.32573e-22)
(1.28105e-07 -5.95025e-06 0)
(1.84325e-07 -4.61782e-06 0)
(-1.6478e-07 -3.3792e-06 -1.28762e-21)
(-6.72738e-07 -2.64087e-06 1.28571e-21)
(-1.33604e-06 -2.11683e-06 0)
(-2.10663e-06 -1.87146e-06 -2.40336e-21)
(-2.94825e-06 -1.99722e-06 2.39629e-21)
(-3.8132e-06 -2.53442e-06 0)
(-4.64349e-06 -3.46495e-06 0)
(-5.33298e-06 -4.73338e-06 0)
(-5.66446e-06 -6.32689e-06 0)
(-5.74786e-06 -8.12205e-06 -3.72485e-21)
(-5.78213e-06 -9.68654e-06 3.70362e-21)
(-5.71756e-06 -1.10459e-05 0)
(-5.59806e-06 -1.20462e-05 0)
(-5.54085e-06 -1.25946e-05 0)
(-5.66725e-06 -1.26402e-05 0)
(-6.0699e-06 -1.21841e-05 0)
(-6.73157e-06 -1.13651e-05 5.75384e-21)
(-7.40653e-06 -1.04354e-05 -5.70454e-21)
(-8.04365e-06 -9.40009e-06 0)
(-8.74682e-06 -7.92134e-06 0)
(-9.13858e-06 -6.1448e-06 0)
(-8.98321e-06 -4.17053e-06 -8.09348e-21)
(-2.06994e-06 -4.97529e-06 6.75046e-21)
(1.321e-07 -6.10776e-06 0)
(1.18731e-07 -4.1204e-06 0)
(-3.44258e-07 -2.5405e-06 -1.34006e-21)
(-9.55175e-07 -1.52041e-06 1.3382e-21)
(-1.71852e-06 -7.8885e-07 0)
(-2.63668e-06 -4.47093e-07 -2.49837e-21)
(-3.67e-06 -5.93324e-07 4.91041e-21)
(-4.75542e-06 -1.2406e-06 -2.41118e-21)
(-5.80672e-06 -2.35151e-06 0)
(-6.73778e-06 -3.84683e-06 0)
(-7.53276e-06 -5.60793e-06 4.09884e-21)
(-7.87129e-06 -7.6818e-06 -7.97474e-21)
(-7.91326e-06 -9.84009e-06 3.87527e-21)
(-7.85708e-06 -1.17212e-05 3.48113e-21)
(-7.55585e-06 -1.33834e-05 -3.45968e-21)
(-7.22206e-06 -1.45881e-05 0)
(-7.01958e-06 -1.52243e-05 -5.96099e-21)
(-7.13584e-06 -1.52156e-05 5.91731e-21)
(-7.66105e-06 -1.45731e-05 0)
(-8.46223e-06 -1.34571e-05 0)
(-9.15663e-06 -1.22057e-05 0)
(-9.71522e-06 -1.07056e-05 6.87337e-21)
(-1.01854e-05 -8.44406e-06 -6.81124e-21)
(-9.93536e-06 -5.66756e-06 -8.18092e-21)
(-2.36504e-06 -5.67359e-06 6.89105e-21)
(1.36392e-07 -6.19363e-06 0)
(5.52756e-08 -3.49184e-06 0)
(-4.66292e-07 -1.52801e-06 0)
(-1.10439e-06 -2.02756e-07 0)
(-1.91248e-06 7.12661e-07 0)
(-2.90117e-06 1.10649e-06 0)
(-4.00056e-06 8.9626e-07 0)
(-5.1598e-06 8.7924e-08 0)
(-6.35771e-06 -1.226e-06 -4.66139e-21)
(-7.5005e-06 -2.96025e-06 4.64366e-21)
(-8.46232e-06 -5.02018e-06 0)
(-9.2126e-06 -7.22541e-06 0)
(-9.48532e-06 -9.70168e-06 0)
(-9.39993e-06 -1.21824e-05 0)
(-9.08835e-06 -1.44366e-05 0)
(-8.4924e-06 -1.64016e-05 0)
(-7.93088e-06 -1.77789e-05 0)
(-7.66357e-06 -1.83979e-05 -5.9801e-21)
(-7.88983e-06 -1.8141e-05 5.93685e-21)
(-8.63797e-06 -1.70541e-05 0)
(-9.7355e-06 -1.53282e-05 -6.32218e-21)
(-1.05119e-05 -1.34475e-05 6.27031e-21)
(-1.07869e-05 -1.10678e-05 0)
(-1.06897e-05 -7.39436e-06 0)
(-2.81025e-06 -6.4673e-06 0)
(1.52936e-07 -6.23588e-06 0)
(6.09255e-08 -2.79729e-06 0)
(-4.55878e-07 -4.27954e-07 0)
(-1.0794e-06 1.18e-06 0)
(-1.86257e-06 2.24452e-06 0)
(-2.80386e-06 2.66347e-06 0)
(-3.85203e-06 2.37115e-06 2.6178e-21)
(-4.95864e-06 1.35969e-06 -2.61048e-21)
(-6.11259e-06 -2.39816e-07 -4.84631e-21)
(-7.29667e-06 -2.22389e-06 4.82904e-21)
(-8.40173e-06 -4.49441e-06 4.44098e-21)
(-9.29551e-06 -6.97756e-06 -4.42182e-21)
(-9.95833e-06 -9.52508e-06 0)
(-1.01401e-05 -1.22832e-05 3.83484e-21)
(-9.79798e-06 -1.50756e-05 -1.81956e-22)
(-9.07327e-06 -1.77454e-05 -3.61112e-21)
(-8.12708e-06 -2.00131e-05 0)
(-7.3914e-06 -2.14431e-05 -6.21683e-21)
(-7.23863e-06 -2.17601e-05 6.17449e-21)
(-7.91083e-06 -2.08641e-05 0)
(-9.27724e-06 -1.89022e-05 0)
(-1.06324e-05 -1.63115e-05 6.82246e-21)
(-1.1187e-05 -1.34653e-05 -6.76782e-21)
(-1.12647e-05 -9.24833e-06 0)
(-3.21149e-06 -7.27561e-06 0)
(1.68023e-07 -6.26847e-06 0)
(1.13302e-07 -2.12986e-06 0)
(-3.23119e-07 5.80807e-07 0)
(-8.44377e-07 2.39715e-06 0)
(-1.46549e-06 3.52651e-06 0)
(-2.1978e-06 3.88919e-06 0)
(-3.04967e-06 3.46908e-06 0)
(-3.99529e-06 2.30431e-06 0)
(-4.95125e-06 4.84251e-07 0)
(-5.94458e-06 -1.76566e-06 0)
(-6.99389e-06 -4.24824e-06 -4.61556e-21)
(-7.98372e-06 -6.8844e-06 4.59688e-21)
(-8.77878e-06 -9.60323e-06 0)
(-9.2785e-06 -1.23003e-05 0)
(-9.27404e-06 -1.53335e-05 0)
(-8.61783e-06 -1.83945e-05 0)
(-7.39781e-06 -2.14618e-05 0)
(-6.09311e-06 -2.39112e-05 0)
(-5.42816e-06 -2.50351e-05 0)
(-5.90345e-06 -2.45837e-05 0)
(-7.58334e-06 -2.25074e-05 0)
(-9.64279e-06 -1.93569e-05 -6.79568e-21)
(-1.09322e-05 -1.57035e-05 6.74435e-21)
(-1.15729e-05 -1.10271e-05 0)
(-3.48504e-06 -8.16308e-06 0)
(1.77838e-07 -6.30675e-06 0)
(2.00435e-07 -1.55089e-06 0)
(-7.25018e-08 1.38826e-06 0)
(-3.88702e-07 3.30826e-06 0)
(-7.21116e-07 4.40641e-06 3.03477e-21)
(-1.04525e-06 4.62835e-06 -3.02938e-21)
(-1.41098e-06 3.98556e-06 0)
(-1.91274e-06 2.62078e-06 0)
(-2.52406e-06 6.42114e-07 -5.25378e-21)
(-3.22312e-06 -1.76095e-06 1.02619e-20)
(-4.05371e-06 -4.36484e-06 -2.09848e-22)
(-4.9236e-06 -7.04468e-06 -4.77905e-21)
(-5.67737e-06 -9.7852e-06 0)
(-6.46895e-06 -1.26109e-05 0)
(-6.79064e-06 -1.54508e-05 3.98684e-21)
(-6.33952e-06 -1.8293e-05 -3.96644e-21)
(-5.20891e-06 -2.14963e-05 -7.24199e-21)
(-3.43016e-06 -2.4993e-05 3.26014e-22)
(-2.14045e-06 -2.7227e-05 6.83268e-21)
(-2.33415e-06 -2.77231e-05 6.36992e-21)
(-4.23603e-06 -2.59556e-05 -6.32766e-21)
(-7.08054e-06 -2.23234e-05 6.78368e-21)
(-9.71291e-06 -1.76644e-05 -6.73527e-21)
(-1.13994e-05 -1.23445e-05 0)
(-3.51824e-06 -8.98694e-06 0)
(1.7398e-07 -6.36523e-06 0)
(3.10498e-07 -1.1356e-06 0)
(3.0524e-07 1.89266e-06 0)
(3.62327e-07 3.76467e-06 0)
(5.22655e-07 4.71506e-06 0)
(8.03673e-07 4.70861e-06 0)
(1.12347e-06 3.77993e-06 0)
(1.31806e-06 2.09977e-06 0)
(1.34336e-06 -1.13768e-07 -5.49043e-21)
(1.213e-06 -2.65464e-06 5.47423e-21)
(8.57976e-07 -5.2909e-06 0)
(2.76923e-07 -7.85421e-06 0)
(-6.04487e-07 -1.03737e-05 0)
(-1.32363e-06 -1.28392e-05 0)
(-1.25401e-06 -1.53621e-05 0)
(-9.71644e-07 -1.80197e-05 0)
(-6.14354e-07 -2.07784e-05 0)
(9.95675e-07 -2.39065e-05 -7.24232e-21)
(2.71141e-06 -2.70131e-05 7.20092e-21)
(2.89893e-06 -2.90534e-05 0)
(1.2527e-06 -2.847e-05 0)
(-2.21875e-06 -2.50217e-05 0)
(-6.53819e-06 -1.93864e-05 0)
(-1.00844e-05 -1.30407e-05 0)
(-3.27582e-06 -9.5662e-06 0)
(1.6852e-07 -6.47048e-06 0)
(4.82333e-07 -9.85472e-07 0)
(8.42008e-07 1.95913e-06 0)
(1.43833e-06 3.58187e-06 0)
(2.30127e-06 4.17323e-06 0)
(3.42577e-06 3.70016e-06 0)
(4.65092e-06 2.23527e-06 0)
(5.78282e-06 1.86282e-08 0)
(6.73202e-06 -2.67508e-06 0)
(7.45841e-06 -5.53583e-06 0)
(7.89944e-06 -8.21153e-06 5.23236e-21)
(7.87328e-06 -1.04794e-05 -5.21473e-21)
(7.63835e-06 -1.24022e-05 0)
(7.41187e-06 -1.3805e-05 0)
(7.20899e-06 -1.51371e-05 4.30595e-21)
(7.18963e-06 -1.67117e-05 -4.28635e-21)
(8.05513e-06 -1.88579e-05 -7.89946e-21)
(9.54655e-06 -2.1415e-05 7.85903e-21)
(1.01104e-05 -2.41219e-05 0)
(1.0176e-05 -2.68111e-05 0)
(9.06351e-06 -2.78984e-05 0)
(5.50634e-06 -2.60317e-05 6.86478e-21)
(-3.60108e-07 -2.05179e-05 -1.41994e-20)
(-7.01257e-06 -1.31667e-05 7.32984e-21)
(-2.63938e-06 -9.89741e-06 0)
(1.64809e-07 -6.65653e-06 0)
(7.27544e-07 -1.21113e-06 0)
(1.54701e-06 1.40928e-06 0)
(2.80196e-06 2.54388e-06 0)
(4.5048e-06 2.53113e-06 0)
(6.57403e-06 1.40109e-06 0)
(8.86512e-06 -8.3367e-07 -3.27891e-21)
(1.11459e-05 -3.71976e-06 3.27222e-21)
(1.33098e-05 -6.95296e-06 -6.07866e-21)
(1.54294e-05 -1.02179e-05 6.06269e-21)
(1.73312e-05 -1.32994e-05 -5.53326e-21)
(1.87214e-05 -1.56797e-05 5.51557e-21)
(1.97393e-05 -1.69723e-05 0)
(2.03984e-05 -1.73694e-05 -4.73073e-21)
(2.08123e-05 -1.7031e-05 4.71162e-21)
(2.10328e-05 -1.62965e-05 0)
(2.1305e-05 -1.58105e-05 0)
(2.20116e-05 -1.67293e-05 -7.79167e-21)
(2.22145e-05 -1.86719e-05 2.91484e-22)
(2.18786e-05 -2.10429e-05 7.42082e-21)
(2.02571e-05 -2.31038e-05 0)
(1.64162e-05 -2.31451e-05 -6.94977e-21)
(9.33583e-06 -1.91939e-05 6.90728e-21)
(-1.32546e-06 -1.18511e-05 0)
(-1.12669e-06 -9.43467e-06 -7.60466e-21)
(1.6091e-07 -6.93639e-06 0)
(1.02556e-06 -1.86021e-06 0)
(2.38836e-06 1.70678e-07 0)
(4.42048e-06 5.95492e-07 0)
(7.15273e-06 -2.83343e-07 0)
(1.03287e-05 -2.33888e-06 0)
(1.38954e-05 -5.44168e-06 0)
(1.77065e-05 -9.18221e-06 0)
(2.14621e-05 -1.31278e-05 0)
(2.50048e-05 -1.69646e-05 0)
(2.84581e-05 -2.01516e-05 0)
(3.20273e-05 -2.24702e-05 0)
(3.53434e-05 -2.35426e-05 0)
(3.81092e-05 -2.3453e-05 0)
(4.02857e-05 -2.20581e-05 0)
(4.16373e-05 -1.94505e-05 0)
(4.21435e-05 -1.62646e-05 0)
(4.19144e-05 -1.33102e-05 0)
(4.0897e-05 -1.14295e-05 0)
(3.95422e-05 -1.08764e-05 0)
(3.7164e-05 -1.18221e-05 0)
(3.30678e-05 -1.37313e-05 0)
(2.45484e-05 -1.20691e-05 0)
(8.63145e-06 -5.36741e-06 0)
(2.49108e-06 -6.23166e-06 0)
(1.58313e-07 -7.28089e-06 9.14698e-22)
(1.37834e-06 -2.89379e-06 9.73253e-22)
(3.40645e-06 -1.78258e-06 -1.95394e-21)
(6.29427e-06 -2.38268e-06 3.83494e-21)
(1.00592e-05 -4.3548e-06 -3.83088e-21)
(1.45228e-05 -7.55143e-06 0)
(1.95498e-05 -1.16219e-05 3.62611e-21)
(2.49501e-05 -1.63982e-05 3.44502e-21)
(3.04063e-05 -2.13597e-05 -1.39066e-20)
(3.62691e-05 -2.58289e-05 6.84077e-21)
(4.25321e-05 -2.92523e-05 6.37388e-21)
(4.87045e-05 -3.14053e-05 -6.35546e-21)
(5.44675e-05 -3.21447e-05 -5.79918e-21)
(5.97592e-05 -3.13647e-05 1.12621e-20)
(6.47697e-05 -2.9044e-05 -3.10939e-22)
(6.87314e-05 -2.53164e-05 4.49461e-21)
(7.12513e-05 -2.07807e-05 -9.58732e-21)
(7.2387e-05 -1.46941e-05 -8.33955e-21)
(7.18707e-05 -7.57673e-06 1.61051e-20)
(6.95519e-05 -3.27155e-07 -7.76619e-21)
(6.42781e-05 5.37309e-06 0)
(5.84123e-05 7.04197e-06 6.8581e-21)
(4.92479e-05 5.95703e-06 -1.37374e-20)
(2.57515e-05 8.50182e-06 6.87689e-21)
(9.22241e-06 1.54223e-08 6.97429e-21)
(1.85961e-07 -7.7175e-06 0)
(1.75334e-06 -4.41886e-06 0)
(4.43089e-06 -4.55431e-06 0)
(8.29174e-06 -6.52172e-06 0)
(1.32726e-05 -9.83314e-06 0)
(1.92052e-05 -1.43045e-05 0)
(2.57699e-05 -1.96888e-05 0)
(3.27687e-05 -2.52991e-05 0)
(4.05733e-05 -3.06071e-05 0)
(4.92809e-05 -3.51309e-05 0)
(5.84451e-05 -3.87899e-05 0)
(6.78184e-05 -4.13048e-05 0)
(7.71445e-05 -4.24638e-05 0)
(8.63502e-05 -4.20486e-05 0)
(9.49395e-05 -3.99688e-05 0)
(0.000101738 -3.59498e-05 0)
(0.000108015 -2.99227e-05 0)
(0.00011391 -2.24456e-05 0)
(0.000117341 -1.32566e-05 -8.26717e-21)
(0.000116675 -1.9763e-06 8.22984e-21)
(0.00011101 1.20271e-05 0)
(0.000101895 2.46978e-05 0)
(8.54774e-05 3.09923e-05 0)
(4.84678e-05 4.17418e-05 0)
(2.46693e-05 3.68761e-05 0)
(1.72762e-07 -8.33425e-06 0)
(2.09678e-06 -6.55843e-06 0)
(5.4892e-06 -8.30433e-06 0)
(1.0382e-05 -1.19083e-05 0)
(1.66703e-05 -1.68201e-05 0)
(2.39655e-05 -2.27178e-05 0)
(3.2394e-05 -2.901e-05 0)
(4.21001e-05 -3.51745e-05 0)
(5.2738e-05 -4.04972e-05 0)
(6.4156e-05 -4.49776e-05 0)
(7.6194e-05 -4.84222e-05 -7.34561e-21)
(8.86857e-05 -5.06464e-05 7.32629e-21)
(0.000101455 -5.15042e-05 0)
(0.000114337 -5.08526e-05 0)
(0.000127181 -4.87545e-05 0)
(0.000140099 -4.49954e-05 0)
(0.000152567 -3.86425e-05 0)
(0.000163165 -2.98065e-05 0)
(0.000171333 -1.79417e-05 0)
(0.000177868 -3.60941e-06 0)
(0.000179846 1.65014e-05 0)
(0.000173792 4.28859e-05 -5.75143e-21)
(0.000162138 6.60875e-05 5.72344e-21)
(0.000138226 8.62105e-05 0)
(6.86245e-05 0.000136237 0)
(1.53324e-07 -9.31335e-06 0)
(2.35127e-06 -9.37629e-06 0)
(6.38299e-06 -1.29037e-05 0)
(1.22259e-05 -1.8159e-05 0)
(1.97054e-05 -2.45182e-05 0)
(2.88336e-05 -3.15663e-05 0)
(3.94433e-05 -3.85179e-05 0)
(5.13673e-05 -4.51653e-05 0)
(6.44866e-05 -5.10614e-05 0)
(7.85881e-05 -5.59101e-05 0)
(9.36228e-05 -5.94492e-05 0)
(0.000109474 -6.14769e-05 0)
(0.000126027 -6.18395e-05 0)
(0.000143215 -6.04191e-05 0)
(0.000160964 -5.71298e-05 0)
(0.000179111 -5.1931e-05 0)
(0.000197887 -4.49899e-05 0)
(0.000217123 -3.55028e-05 0)
(0.000235503 -2.21721e-05 0)
(0.000253914 -3.85108e-06 0)
(0.000273722 1.89024e-05 0)
(0.000294822 4.89272e-05 0)
(0.00032244 8.58892e-05 0)
(0.000380257 0.000117119 0)
(0.000472349 0.000174889 0)
(1.72782e-07 -1.05781e-05 0)
(2.63476e-06 -1.27513e-05 0)
(7.22353e-06 -1.81776e-05 0)
(1.39285e-05 -2.51791e-05 0)
(2.25546e-05 -3.30432e-05 0)
(3.30324e-05 -4.13087e-05 0)
(4.51954e-05 -4.96357e-05 0)
(5.88893e-05 -5.75041e-05 0)
(7.40151e-05 -6.45815e-05 0)
(9.04309e-05 -7.04808e-05 0)
(0.000108085 -7.49474e-05 0)
(0.000126914 -7.77934e-05 0)
(0.000146863 -7.88739e-05 0)
(0.000167923 -7.80977e-05 0)
(0.000190115 -7.54358e-05 0)
(0.00021343 -7.08638e-05 0)
(0.000238032 -6.42529e-05 0)
(0.000263958 -5.56992e-05 0)
(0.000291484 -4.4684e-05 0)
(0.00032112 -2.94886e-05 0)
(0.000354034 -1.01583e-05 0)
(0.000393037 1.35157e-05 0)
(0.000441885 4.07674e-05 0)
(0.000504858 6.37048e-05 0)
(0.000532429 4.91142e-05 0)
(1.89393e-07 -1.19649e-05 0)
(2.89806e-06 -1.65466e-05 0)
(7.98982e-06 -2.41939e-05 0)
(1.54489e-05 -3.32985e-05 0)
(2.50632e-05 -4.31322e-05 0)
(3.67012e-05 -5.32575e-05 0)
(5.02191e-05 -6.33034e-05 0)
(6.54941e-05 -7.27958e-05 0)
(8.2428e-05 -8.13797e-05 0)
(0.00010093 -8.87122e-05 0)
(0.000120959 -9.45437e-05 0)
(0.000142484 -9.86974e-05 0)
(0.00016549 -0.000101047 0)
(0.000189996 -0.00010152 0)
(0.000216053 -0.000100109 0)
(0.00024372 -9.6843e-05 0)
(0.000273111 -9.1705e-05 0)
(0.000304365 -8.47441e-05 0)
(0.000337879 -7.56306e-05 0)
(0.000374127 -6.40348e-05 0)
(0.000413605 -4.92102e-05 0)
(0.000456844 -3.09057e-05 0)
(0.000503664 -9.89686e-06 0)
(0.000550917 1.22963e-05 0)
(0.000572973 3.30809e-05 0)
(2.01005e-07 -1.34676e-05 0)
(3.12205e-06 -2.06937e-05 0)
(8.64071e-06 -3.07928e-05 0)
(1.67276e-05 -4.22226e-05 0)
(2.71557e-05 -5.4249e-05 0)
(3.97793e-05 -6.64491e-05 0)
(5.44633e-05 -7.84207e-05 0)
(7.10941e-05 -8.97455e-05 0)
(8.95841e-05 -0.00010007 0)
(0.000109867 -0.000109091 0)
(0.00013191 -0.000116581 0)
(0.000155697 -0.000122383 0)
(0.000181235 -0.000126392 0)
(0.000208545 -0.000128556 0)
(0.000237669 -0.000128877 0)
(0.00026865 -0.000127397 0)
(0.000301536 -0.000124152 0)
(0.000336385 -0.000119149 0)
(0.000373291 -0.000112209 0)
(0.00041231 -0.000103065 0)
(0.00045323 -9.09325e-05 0)
(0.000495244 -7.45012e-05 0)
(0.000536597 -5.15064e-05 0)
(0.000572413 -1.77776e-05 0)
(0.000589757 3.54928e-05 0)
(2.07787e-07 -1.50673e-05 0)
(3.303e-06 -2.5139e-05 0)
(9.17163e-06 -3.78715e-05 0)
(1.77713e-05 -5.17966e-05 0)
(2.88662e-05 -6.6178e-05 0)
(4.23066e-05 -8.05966e-05 0)
(5.7961e-05 -9.46574e-05 0)
(7.5719e-05 -0.000107975 0)
(9.54962e-05 -0.000120216 0)
(0.000117235 -0.000131109 0)
(0.000140902 -0.000140452 0)
(0.000166486 -0.000148107 0)
(0.000193989 -0.000153984 0)
(0.00022342 -0.000158044 0)
(0.000254788 -0.000160284 0)
(0.00028808 -0.000160733 0)
(0.000323249 -0.000159406 0)
(0.000360195 -0.000156256 0)
(0.000398737 -0.000151065 0)
(0.000438536 -0.000143315 0)
(0.000478918 -0.000131877 0)
(0.000518579 -0.000114567 0)
(0.000555379 -8.74518e-05 0)
(0.000586284 -4.41575e-05 0)
(0.000606328 2.63061e-05 0)
(2.10047e-07 -1.67414e-05 0)
(3.43991e-06 -2.98251e-05 0)
(9.58537e-06 -4.53387e-05 0)
(1.85933e-05 -6.19003e-05 0)
(3.0222e-05 -7.87735e-05 0)
(4.43199e-05 -9.55436e-05 0)
(6.07556e-05 -0.000111831 0)
(7.94175e-05 -0.000127277 0)
(0.000100219 -0.000141575 0)
(0.000123101 -0.00015448 0)
(0.000148024 -0.000165811 0)
(0.000174968 -0.000175444 0)
(0.000203918 -0.000183298 0)
(0.00023486 -0.000189328 0)
(0.00026776 -0.000193512 0)
(0.000302546 -0.000195837 0)
(0.000339083 -0.000196254 0)
(0.00037714 -0.000194612 0)
(0.000416359 -0.000190546 0)
(0.000456192 -0.000183297 0)
(0.000495816 -0.000171404 0)
(0.000534056 -0.000152242 0)
(0.000569461 -0.000121354 0)
(0.0006009 -7.18534e-05 0)
(0.000627863 5.354e-06 0)
(2.08183e-07 -1.84674e-05 0)
(3.53471e-06 -3.46949e-05 0)
(9.88834e-06 -5.31076e-05 0)
(1.92084e-05 -7.2419e-05 0)
(3.12483e-05 -9.18955e-05 0)
(4.58548e-05 -0.000111127 0)
(6.28947e-05 -0.000129749 0)
(8.22521e-05 -0.000147429 0)
(0.000103835 -0.000163885 0)
(0.000127575 -0.000178896 0)
(0.000153424 -0.000192297 0)
(0.000181346 -0.000203974 0)
(0.000211307 -0.000213846 0)
(0.000243263 -0.000221851 0)
(0.000277146 -0.000227936 0)
(0.000312836 -0.000232027 0)
(0.000350142 -0.000233989 0)
(0.000388771 -0.000233552 0)
(0.000428303 -0.000230199 0)
(0.000468168 -0.00022298 0)
(0.000507652 -0.000210255 0)
(0.000545969 -0.000189321 0)
(0.000582548 -0.000155989 0)
(0.000617666 -0.000104315 0)
(0.000652972 -2.72799e-05 0)
(2.02771e-07 -2.02246e-05 0)
(3.59082e-06 -3.96952e-05 0)
(1.00901e-05 -6.10985e-05 0)
(1.96343e-05 -8.32473e-05 0)
(3.19736e-05 -0.000105413 0)
(4.69527e-05 -0.000127189 0)
(6.44354e-05 -0.000148226 0)
(8.43e-05 -0.000168214 0)
(0.000106447 -0.000186894 0)
(0.000130797 -0.000204064 0)
(0.000157291 -0.000219576 0)
(0.000185874 -0.000233319 0)
(0.000216496 -0.000245207 0)
(0.000249088 -0.000255158 0)
(0.000283558 -0.000263079 0)
(0.000319763 -0.000268835 0)
(0.000357492 -0.000272209 0)
(0.000396452 -0.000272826 0)
(0.000436257 -0.000270055 0)
(0.000476439 -0.000262855 0)
(0.000516514 -0.000249573 0)
(0.000556129 -0.000227705 0)
(0.000595382 -0.000193693 0)
(0.000635366 -0.000142947 0)
(0.000678659 -7.0406e-05 0)
(1.94285e-07 -2.19944e-05 0)
(3.61306e-06 -4.47786e-05 0)
(1.02024e-05 -6.924e-05 0)
(1.9892e-05 -9.42903e-05 0)
(3.243e-05 -0.000119208 0)
(4.76598e-05 -0.000143588 0)
(6.54419e-05 -0.000167096 0)
(8.56485e-05 -0.00018944 0)
(0.000108172 -0.000210382 0)
(0.000132923 -0.000229739 0)
(0.000159829 -0.000247374 0)
(0.000188823 -0.00026318 0)
(0.000219839 -0.000277062 0)
(0.000252794 -0.000288919 0)
(0.000287585 -0.000298622 0)
(0.000324067 -0.000305984 0)
(0.000362044 -0.00031072 0)
(0.000401264 -0.000312388 0)
(0.000441431 -0.000310302 0)
(0.000482233 -0.000303417 0)
(0.00052344 -0.000290199 0)
(0.00056506 -0.000268491 0)
(0.000607623 -0.000235458 0)
(0.000652583 -0.000187737 0)
(0.000702714 -0.000121961 0)
(1.83476e-07 -2.37612e-05 0)
(3.60662e-06 -4.99042e-05 0)
(1.02376e-05 -7.74683e-05 0)
(2.0003e-05 -0.000105463 0)
(3.26514e-05 -0.000133175 0)
(4.80252e-05 -0.000160201 0)
(6.59818e-05 -0.000186215 0)
(8.63889e-05 -0.000210945 0)
(0.000109131 -0.000234169 0)
(0.000134111 -0.000255722 0)
(0.000161246 -0.000275478 0)
(0.000190458 -0.000293332 0)
(0.000221672 -0.000309185 0)
(0.000254802 -0.000322916 0)
(0.000289745 -0.000334371 0)
(0.000326371 -0.000343325 0)
(0.00036452 -0.000349455 0)
(0.000404008 -0.000352285 0)
(0.000444646 -0.000351129 0)
(0.000486288 -0.000345008 0)
(0.000528923 -0.000332578 0)
(0.000572822 -0.000312076 0)
(0.000618757 -0.000281347 0)
(0.000668272 -0.000238024 0)
(0.000723929 -0.000179972 0)
(1.70966e-07 -2.55116e-05 0)
(3.57665e-06 -5.50367e-05 0)
(1.02079e-05 -8.57283e-05 0)
(1.99895e-05 -0.000116693 0)
(3.26718e-05 -0.000147225 0)
(4.80977e-05 -0.00017692 0)
(6.61229e-05 -0.000205462 0)
(8.66114e-05 -0.000232591 0)
(0.000109443 -0.000258107 0)
(0.000134513 -0.000281856 0)
(0.000161733 -0.000303725 0)
(0.000191019 -0.000323613 0)
(0.000222293 -0.000341416 0)
(0.000255472 -0.000357007 0)
(0.000290463 -0.000370213 0)
(0.000327164 -0.000380792 0)
(0.000365461 -0.000388405 0)
(0.000405244 -0.000392579 0)
(0.00044643 -0.000392667 0)
(0.000489019 -0.000387799 0)
(0.000533168 -0.000376852 0)
(0.000579318 -0.00035844 0)
(0.000628348 -0.000330985 0)
(0.000681746 -0.00029289 0)
(0.000741739 -0.00024288 0)
(1.57378e-07 -2.72354e-05 0)
(3.52785e-06 -6.01467e-05 0)
(1.01251e-05 -9.39735e-05 0)
(1.98723e-05 -0.000127918 0)
(3.2524e-05 -0.000161279 0)
(4.79242e-05 -0.000193654 0)
(6.59289e-05 -0.000224732 0)
(8.64003e-05 -0.000254267 0)
(0.000109215 -0.000282074 0)
(0.000134266 -0.000308017 0)
(0.00016146 -0.00033199 0)
(0.000190713 -0.000353901 0)
(0.000221948 -0.000373649 0)
(0.000255091 -0.000391103 0)
(0.000290067 -0.000406086 0)
(0.000326804 -0.000418354 0)
(0.000365238 -0.000427576 0)
(0.000405328 -0.000433308 0)
(0.000447087 -0.000434969 0)
(0.000490624 -0.00043182 0)
(0.000536216 -0.000422953 0)
(0.000584399 -0.000407322 0)
(0.00063607 -0.00038381 0)
(0.000692591 -0.000351393 0)
(0.000755847 -0.000309384 0)
(1.43206e-07 -2.89247e-05 0)
(3.46455e-06 -6.52103e-05 0)
(9.99939e-06 -0.000102165 0)
(1.96706e-05 -0.000139083 0)
(3.22376e-05 -0.000175273 0)
(4.75475e-05 -0.000210328 0)
(6.54577e-05 -0.000243941 0)
(8.58307e-05 -0.000275881 0)
(0.000108543 -0.000305976 0)
(0.000133486 -0.000334107 0)
(0.000160568 -0.000360179 0)
(0.000189706 -0.000384111 0)
(0.000220829 -0.000405807 0)
(0.000253875 -0.000425143 0)
(0.000288789 -0.000441948 0)
(0.000325531 -0.000455991 0)
(0.000364082 -0.000466964 0)
(0.000404461 -0.00047447 0)
(0.000446754 -0.000478011 0)
(0.000491153 -0.00047698 0)
(0.000538006 -0.000470674 0)
(0.000587885 -0.000458327 0)
(0.000641657 -0.000439186 0)
(0.000700533 -0.000412639 0)
(0.000766084 -0.000378396 0)
(1.28919e-07 -3.05735e-05 0)
(3.39027e-06 -7.02083e-05 0)
(9.84014e-06 -0.000110271 0)
(1.94009e-05 -0.000150148 0)
(3.18387e-05 -0.000189153 0)
(4.70045e-05 -0.000226878 0)
(6.47587e-05 -0.000263019 0)
(8.49664e-05 -0.000297356 0)
(0.000107505 -0.000329735 0)
(0.000132269 -0.000360048 0)
(0.000159168 -0.000388217 0)
(0.000188125 -0.000414172 0)
(0.000219076 -0.000437831 0)
(0.000251972 -0.000459079 0)
(0.000286779 -0.000477762 0)
(0.000323486 -0.000493671 0)
(0.000362111 -0.000506535 0)
(0.000402722 -0.000516014 0)
(0.000445457 -0.000521696 0)
(0.000490557 -0.000523104 0)
(0.000538408 -0.000519713 0)
(0.000589583 -0.000510987 0)
(0.000644883 -0.000496451 0)
(0.000705364 -0.000475787 0)
(0.00077233 -0.000448966 0)
(1.14857e-07 -3.21778e-05 0)
(3.30816e-06 -7.51254e-05 0)
(9.65482e-06 -0.000118265 0)
(1.90775e-05 -0.000161075 0)
(3.13492e-05 -0.000202874 0)
(4.63262e-05 -0.000243252 0)
(6.38732e-05 -0.000281907 0)
(8.3859e-05 -0.000318631 0)
(0.000106165 -0.000353285 0)
(0.000130689 -0.000385775 0)
(0.000157344 -0.000416042 0)
(0.00018606 -0.000444028 0)
(0.000216783 -0.000469666 0)
(0.000249475 -0.000492861 0)
(0.000284123 -0.000513479 0)
(0.000320737 -0.000531342 0)
(0.000359366 -0.000546222 0)
(0.00040011 -0.00055784 0)
(0.000443143 -0.00056587 0)
(0.000488731 -0.000569953 0)
(0.000537267 -0.000569714 0)
(0.000589299 -0.000564804 0)
(0.000645549 -0.000554953 0)
(0.000706924 -0.000540052 0)
(0.000774499 -0.00052024 0)
(1.01329e-07 -3.37347e-05 0)
(3.22046e-06 -7.99499e-05 0)
(9.44966e-06 -0.000126128 0)
(1.87114e-05 -0.000171835 0)
(3.07867e-05 -0.0002164 0)
(4.55373e-05 -0.000259406 0)
(6.28334e-05 -0.000300556 0)
(8.25488e-05 -0.000339653 0)
(0.00010457 -0.00037657 0)
(0.000128798 -0.000411232 0)
(0.000155153 -0.000443595 0)
(0.000183572 -0.00047362 0)
(0.000214008 -0.000501257 0)
(0.000246437 -0.000526432 0)
(0.000280858 -0.000549037 0)
(0.0003173 -0.000568929 0)
(0.000355833 -0.000585925 0)
(0.000396578 -0.000599808 0)
(0.000439723 -0.000610332 0)
(0.000485545 -0.000617241 0)
(0.000534422 -0.000620287 0)
(0.000586859 -0.000619265 0)
(0.000643493 -0.00061406 0)
(0.000705094 -0.000604705 0)
(0.000772542 -0.000591448 0)
(8.84278e-08 -3.52425e-05 0)
(3.12893e-06 -8.46727e-05 0)
(9.22905e-06 -0.000133842 0)
(1.83114e-05 -0.000182406 0)
(3.01647e-05 -0.000229699 0)
(4.46568e-05 -0.000275302 0)
(6.16639e-05 -0.000318923 0)
(8.10657e-05 -0.000360372 0)
(0.000102754 -0.000399539 0)
(0.000126636 -0.000436365 0)
(0.000152636 -0.000470822 0)
(0.000180699 -0.00050289 0)
(0.000210785 -0.00053254 0)
(0.000242879 -0.000559721 0)
(0.000276991 -0.000584354 0)
(0.000313162 -0.00060633 0)
(0.000351474 -0.000625512 0)
(0.000392056 -0.000641742 0)
(0.000435102 -0.000654847 0)
(0.000480877 -0.000664657 0)
(0.000529735 -0.000671028 0)
(0.000582126 -0.000673867 0)
(0.000638603 -0.000673171 0)
(0.000699809 -0.000669073 0)
(0.000766458 -0.000661881 0)
(7.63762e-08 -3.67002e-05 0)
(3.03483e-06 -8.92864e-05 0)