/*--------------------------------*- C++ -*----------------------------------*\
  =========                 |
  \\      /  F ield         | OpenFOAM: The Open Source CFD Toolbox
   \\    /   O peration     | Website:  https://openfoam.org
    \\  /    A nd           | Version:  13
     \\/     M anipulation  |
\*---------------------------------------------------------------------------*/
FoamFile
{
    format      ascii;
    class       volScalarField;
    location    "26";
    object      p;
}
// * * * * * * * * * * * * * * * * * * * * * * * * * * * * * * * * * * * * * //

dimensions      [0 2 -2 0 0 0 0];

internalField   nonuniform List<scalar> 
6440
(
131.711
131.696
131.665
131.645
131.662
131.712
131.767
131.809
131.836
131.848
131.854
131.856
131.856
131.856
131.859
131.868
131.876
131.876
131.868
131.853
131.839
131.832
131.832
131.838
131.842
131.698
131.679
131.65
131.638
131.66
131.709
131.763
131.808
131.84
131.86
131.87
131.87
131.863
131.853
131.85
131.853
131.857
131.853
131.84
131.823
131.808
131.802
131.807
131.817
131.823
131.685
131.674
131.651
131.635
131.642
131.665
131.692
131.716
131.741
131.772
131.809
131.84
131.849
131.844
131.839
131.837
131.826
131.81
131.792
131.775
131.765
131.764
131.772
131.783
131.784
131.682
131.682
131.66
131.612
131.56
131.516
131.494
131.497
131.525
131.582
131.663
131.748
131.814
131.844
131.848
131.836
131.8
131.761
131.734
131.717
131.712
131.72
131.732
131.743
131.742
131.683
131.681
131.61
131.481
131.36
131.273
131.223
131.221
131.268
131.362
131.496
131.647
131.784
131.874
131.9
131.862
131.789
131.724
131.68
131.661
131.663
131.678
131.695
131.707
131.705
131.654
131.609
131.459
131.275
131.119
131.013
130.965
130.978
131.049
131.182
131.37
131.586
131.79
131.934
131.961
131.891
131.787
131.699
131.642
131.621
131.627
131.648
131.67
131.683
131.682
131.553
131.463
131.284
131.092
130.939
130.847
130.822
130.852
130.937
131.096
131.325
131.592
131.842
131.992
131.983
131.89
131.779
131.681
131.618
131.598
131.608
131.636
131.66
131.675
131.675
131.436
131.34
131.177
131.007
130.882
130.815
130.801
130.822
130.918
131.104
131.364
131.652
131.899
132
131.952
131.861
131.761
131.67
131.61
131.594
131.61
131.64
131.665
131.678
131.679
131.386
131.295
131.161
131.024
130.917
130.856
130.839
130.877
130.99
131.183
131.438
131.698
131.892
131.935
131.884
131.81
131.731
131.661
131.616
131.609
131.631
131.661
131.682
131.689
131.688
131.412
131.335
131.23
131.12
131.026
130.967
130.95
130.99
131.097
131.274
131.488
131.693
131.817
131.818
131.778
131.725
131.67
131.627
131.608
131.618
131.65
131.686
131.705
131.704
131.696
131.504
131.453
131.371
131.277
131.191
131.129
131.104
131.128
131.212
131.346
131.494
131.63
131.69
131.673
131.638
131.596
131.561
131.543
131.551
131.585
131.64
131.696
131.723
131.714
131.7
131.668
131.637
131.564
131.471
131.381
131.309
131.264
131.261
131.304
131.374
131.45
131.513
131.522
131.497
131.461
131.424
131.401
131.403
131.433
131.493
131.582
131.684
131.738
131.72
131.691
131.895
131.864
131.785
131.68
131.574
131.479
131.404
131.357
131.346
131.339
131.351
131.356
131.327
131.29
131.247
131.21
131.195
131.211
131.263
131.35
131.479
131.641
131.757
131.724
131.667
132.115
132.071
131.981
131.865
131.74
131.617
131.5
131.403
131.334
131.275
131.226
131.175
131.117
131.058
130.998
130.954
130.942
130.973
131.048
131.165
131.331
131.548
131.734
131.71
131.603
132.262
132.212
132.117
131.995
131.856
131.707
131.556
131.415
131.283
131.17
131.072
130.98
130.889
130.795
130.707
130.651
130.64
130.687
130.788
130.934
131.127
131.374
131.604
131.588
131.419
132.334
132.285
132.191
132.065
131.914
131.745
131.565
131.382
131.207
131.054
130.912
130.773
130.63
130.486
130.365
130.293
130.283
130.344
130.465
130.632
130.835
131.074
131.286
131.251
131.015
132.348
132.301
132.209
132.081
131.921
131.737
131.535
131.326
131.125
130.936
130.745
130.545
130.333
130.129
129.967
129.878
129.865
129.934
130.069
130.247
130.44
130.638
130.772
130.674
130.382
132.323
132.275
132.184
132.056
131.894
131.701
131.487
131.262
131.039
130.809
130.564
130.289
130.002
129.727
129.521
129.416
129.401
129.48
129.637
129.832
130.028
130.177
130.211
130.008
129.627
132.277
132.225
132.138
132.012
131.849
131.654
131.435
131.2
130.952
130.681
130.374
130.029
129.653
129.303
129.053
128.94
128.937
129.053
129.264
129.521
129.761
129.93
129.932
129.61
129.082
132.221
132.17
132.088
131.966
131.806
131.61
131.386
131.138
130.862
130.545
130.178
129.748
129.286
128.866
128.603
128.512
128.549
128.732
129.029
129.381
129.728
130.014
130.152
129.981
129.443
132.17
132.126
132.05
131.933
131.777
131.584
131.359
131.1
130.801
130.449
130.031
129.552
129.025
128.559
128.3
128.239
128.324
128.568
128.942
129.384
129.838
130.275
130.696
131.145
132.047
132.143
132.105
132.037
131.928
131.781
131.596
131.376
131.117
130.809
130.44
130.003
129.485
128.914
128.401
128.153
128.107
128.208
128.468
128.875
129.368
129.894
130.432
131.01
131.779
132.976
132.145
132.111
132.048
131.948
131.811
131.636
131.425
131.174
130.871
130.504
130.062
129.548
128.975
128.453
128.213
128.16
128.259
128.511
128.92
129.432
129.991
130.57
131.187
131.909
132.794
132.176
132.143
132.081
131.989
131.863
131.7
131.502
131.267
130.982
130.633
130.216
129.734
129.216
128.725
128.447
128.369
128.445
128.668
129.059
129.558
130.107
130.673
131.254
131.877
132.55
132.229
132.195
132.133
132.048
131.936
131.79
131.612
131.401
131.148
130.842
130.471
130.051
129.604
129.165
128.856
128.741
128.768
128.956
129.307
129.756
130.251
130.762
131.271
131.781
132.299
132.29
132.258
132.196
132.12
132.024
131.902
131.751
131.573
131.363
131.11
130.805
130.448
130.057
129.665
129.356
129.201
129.2
129.358
129.642
130.005
130.416
130.847
131.273
131.682
132.083
132.341
132.318
132.261
132.194
132.118
132.024
131.908
131.768
131.602
131.402
131.156
130.859
130.52
130.177
129.898
129.74
129.722
129.824
130.014
130.274
130.589
130.936
131.278
131.599
131.906
132.367
132.36
132.316
132.261
132.205
132.143
132.067
131.97
131.847
131.693
131.498
131.256
130.976
130.693
130.455
130.302
130.245
130.269
130.366
130.534
130.763
131.026
131.291
131.535
131.765
132.371
132.377
132.354
132.316
132.284
132.256
132.224
132.174
132.099
131.991
131.843
131.652
131.429
131.194
130.979
130.807
130.695
130.654
130.685
130.782
130.934
131.12
131.311
131.489
131.657
132.366
132.376
132.371
132.356
132.352
132.366
132.382
132.386
132.363
132.303
132.2
132.051
131.86
131.643
131.42
131.219
131.072
130.993
130.979
131.017
131.099
131.212
131.338
131.46
131.577
132.363
132.37
132.373
132.38
132.414
132.472
132.542
132.6
132.629
132.615
132.548
132.419
132.237
132.013
131.778
131.566
131.406
131.302
131.246
131.231
131.253
131.303
131.37
131.446
131.515
132.353
132.358
132.367
132.391
132.458
132.569
132.694
132.804
132.878
132.9
132.853
132.732
132.542
132.314
132.082
131.875
131.706
131.576
131.48
131.42
131.391
131.384
131.404
131.438
131.463
132.339
132.338
132.346
132.379
132.48
132.643
132.821
132.976
133.084
133.134
133.104
132.977
132.785
132.563
132.341
132.136
131.951
131.791
131.661
131.564
131.491
131.448
131.436
131.429
131.414
132.344
132.332
132.331
132.365
132.481
132.684
132.908
133.102
133.234
133.296
133.26
133.128
132.934
132.721
132.507
132.3
132.104
131.928
131.778
131.654
131.56
131.494
131.441
131.394
131.36
132.389
132.354
132.327
132.351
132.465
132.662
132.885
133.074
133.206
133.263
133.23
133.108
132.939
132.748
132.55
132.353
132.164
131.991
131.838
131.709
131.6
131.505
131.425
131.369
131.308
132.471
132.396
132.308
132.257
132.286
132.412
132.609
132.826
132.996
133.074
133.058
132.972
132.838
132.681
132.511
132.337
132.167
132.006
131.862
131.734
131.615
131.512
131.433
131.354
131.251
132.502
132.382
132.201
132.026
131.943
131.997
132.181
132.423
132.637
132.765
132.801
132.764
132.682
132.566
132.43
132.283
132.134
131.991
131.859
131.734
131.62
131.521
131.426
131.312
131.173
132.39
132.247
132.017
131.774
131.604
131.573
131.696
131.922
132.174
132.37
132.475
132.508
132.482
132.413
132.315
132.198
132.075
131.951
131.83
131.714
131.605
131.497
131.379
131.24
131.082
132.142
131.997
131.756
131.462
131.205
131.076
131.121
131.321
131.615
131.899
132.099
132.209
132.247
132.23
132.172
132.09
131.993
131.887
131.779
131.669
131.556
131.437
131.305
131.155
130.986
131.829
131.682
131.434
131.1
130.768
130.55
130.518
130.681
131.022
131.406
131.705
131.896
131.999
132.032
132.015
131.965
131.891
131.803
131.705
131.599
131.485
131.361
131.222
131.065
130.889
131.525
131.375
131.127
130.776
130.383
130.109
130.012
130.127
130.493
130.956
131.338
131.601
131.759
131.837
131.855
131.831
131.778
131.705
131.616
131.516
131.403
131.276
131.134
130.973
130.792
131.306
131.153
130.912
130.561
130.156
129.873
129.746
129.813
130.142
130.616
131.042
131.349
131.549
131.66
131.703
131.7
131.663
131.602
131.522
131.426
131.315
131.188
131.044
130.88
130.696
131.218
131.067
130.837
130.522
130.13
129.909
129.784
129.812
130.03
130.435
130.851
131.172
131.387
131.514
131.572
131.581
131.555
131.502
131.428
131.335
131.226
131.099
130.954
130.789
130.603
131.281
131.137
130.929
130.66
130.338
130.157
130.086
130.066
130.136
130.428
130.788
131.078
131.285
131.409
131.468
131.481
131.459
131.411
131.34
131.249
131.14
131.014
130.869
130.703
130.518
131.48
131.35
131.169
130.963
130.705
130.524
130.468
130.4
130.38
130.568
130.837
131.073
131.244
131.348
131.396
131.404
131.381
131.332
131.261
131.171
131.062
130.935
130.79
130.625
130.44
131.773
131.664
131.514
131.337
131.142
130.945
130.843
130.732
130.694
130.803
130.978
131.138
131.26
131.329
131.356
131.352
131.321
131.268
131.194
131.102
130.993
130.865
130.72
130.556
130.372
132.093
132.007
131.88
131.729
131.56
131.387
131.245
131.11
131.06
131.09
131.165
131.255
131.314
131.342
131.343
131.321
131.279
131.219
131.141
131.045
130.934
130.806
130.66
130.497
130.314
132.366
132.308
132.204
132.073
131.924
131.788
131.656
131.537
131.452
131.388
131.368
131.384
131.389
131.377
131.351
131.31
131.254
131.184
131.1
131
130.886
130.756
130.611
130.448
130.267
132.542
132.52
132.449
132.367
132.271
132.192
132.094
131.962
131.808
131.657
131.554
131.511
131.469
131.423
131.371
131.311
131.242
131.162
131.071
130.966
130.849
130.717
130.571
130.409
130.23
132.606
132.618
132.605
132.6
132.594
132.577
132.472
132.284
132.068
131.864
131.717
131.625
131.548
131.473
131.399
131.322
131.24
131.151
131.052
130.942
130.821
130.688
130.541
130.381
130.204
132.597
132.624
132.669
132.748
132.836
132.846
132.697
132.461
132.224
132.01
131.845
131.722
131.615
131.52
131.428
131.338
131.245
131.146
131.041
130.927
130.802
130.667
130.521
130.36
130.187
132.571
132.593
132.668
132.799
132.936
132.925
132.755
132.523
132.304
132.102
131.929
131.789
131.668
131.559
131.456
131.355
131.253
131.147
131.036
130.918
130.791
130.655
130.508
130.35
130.178
132.553
132.56
132.628
132.742
132.848
132.836
132.709
132.525
132.327
132.135
131.974
131.833
131.707
131.59
131.48
131.371
131.263
131.151
131.036
130.915
130.786
130.649
130.503
130.345
130.177
132.555
132.529
132.544
132.61
132.658
132.69
132.615
132.475
132.312
132.143
131.994
131.858
131.733
131.614
131.499
131.386
131.273
131.158
131.039
130.916
130.786
130.649
130.503
130.348
130.183
132.573
132.503
132.445
132.469
132.52
132.569
132.519
132.405
132.268
132.133
131.999
131.872
131.749
131.63
131.514
131.399
131.283
131.166
131.045
130.92
130.79
130.653
130.509
130.356
130.195
132.582
132.486
132.4
132.379
132.434
132.475
132.43
132.342
132.234
132.117
131.997
131.877
131.759
131.642
131.525
131.409
131.293
131.174
131.053
130.927
130.797
130.661
130.518
130.369
130.211
132.587
132.499
132.415
132.376
132.406
132.416
132.371
132.298
132.207
132.103
131.992
131.879
131.764
131.649
131.534
131.419
131.302
131.183
131.061
130.936
130.807
130.672
130.532
130.385
130.232
132.605
132.547
132.48
132.452
132.442
132.401
132.35
132.278
132.19
132.092
131.988
131.879
131.767
131.655
131.541
131.427
131.31
131.192
131.071
130.947
130.819
130.686
130.548
130.405
130.256
132.638
132.613
132.573
132.552
132.496
132.415
132.353
132.273
132.182
132.086
131.984
131.878
131.769
131.659
131.547
131.433
131.318
131.201
131.081
130.958
130.832
130.702
130.567
130.427
130.282
132.677
132.674
132.67
132.638
132.543
132.443
132.363
132.273
132.18
132.083
131.982
131.877
131.771
131.662
131.552
131.44
131.326
131.21
131.092
130.971
130.846
130.719
130.587
130.451
130.31
132.711
132.718
132.74
132.695
132.572
132.471
132.373
132.276
132.179
132.081
131.98
131.877
131.772
131.665
131.556
131.445
131.333
131.219
131.102
130.983
130.862
130.737
130.609
130.476
130.34
132.737
132.745
132.769
132.713
132.578
132.484
132.379
132.278
132.179
132.08
131.979
131.876
131.772
131.667
131.559
131.451
131.34
131.228
131.113
130.997
130.877
130.756
130.63
130.503
130.371
132.754
132.765
132.772
132.704
132.574
132.479
132.378
132.277
132.177
132.078
131.977
131.876
131.772
131.668
131.562
131.455
131.347
131.236
131.124
131.01
130.894
130.775
130.654
130.529
130.402
132.76
132.779
132.773
132.685
132.573
132.473
132.373
132.273
132.173
132.074
131.974
131.873
131.772
131.669
131.565
131.46
131.353
131.245
131.135
131.023
130.91
130.794
130.676
130.557
130.434
132.758
132.781
132.77
132.667
132.569
132.466
132.364
132.266
132.168
132.069
131.97
131.87
131.77
131.669
131.567
131.463
131.359
131.253
131.145
131.037
130.926
130.814
130.7
130.583
130.466
132.752
132.771
132.757
132.641
132.551
132.452
132.353
132.256
132.159
132.062
131.964
131.866
131.767
131.668
131.568
131.466
131.364
131.26
131.156
131.049
130.942
130.833
130.722
130.611
130.496
132.748
132.759
132.729
132.616
132.53
132.435
132.339
132.244
132.149
132.054
131.957
131.861
131.764
131.666
131.568
131.469
131.368
131.267
131.165
131.062
130.957
130.852
130.745
130.636
130.527
132.743
132.752
132.698
132.598
132.509
132.417
132.324
132.23
132.137
132.043
131.949
131.854
131.759
131.663
131.567
131.47
131.372
131.274
131.174
131.074
130.973
130.87
130.767
130.663
130.557
132.731
132.742
132.667
132.585
132.491
132.398
132.307
132.215
132.124
132.032
131.939
131.846
131.753
131.66
131.565
131.471
131.376
131.279
131.183
131.085
130.987
130.888
130.788
130.687
130.586
132.717
132.732
132.635
132.563
132.471
132.379
132.289
132.199
132.109
132.019
131.928
131.837
131.746
131.655
131.563
131.471
131.378
131.284
131.19
131.096
131.001
130.905
130.808
130.712
130.614
132.711
132.719
132.604
132.538
132.448
132.358
132.27
132.181
132.093
132.005
131.916
131.827
131.738
131.649
131.56
131.47
131.379
131.289
131.197
131.106
131.014
130.921
130.828
130.735
130.641
132.714
132.705
132.58
132.511
132.424
132.335
132.248
132.162
132.075
131.989
131.902
131.816
131.729
131.642
131.555
131.468
131.38
131.292
131.204
131.115
131.026
130.936
130.847
130.757
130.667
132.714
132.685
132.562
132.484
132.398
132.31
132.225
132.14
132.056
131.972
131.887
131.803
131.719
131.635
131.55
131.465
131.38
131.295
131.209
131.123
131.037
130.951
130.865
130.778
130.692
132.7
132.653
132.54
132.453
132.368
132.283
132.199
132.117
132.035
131.953
131.871
131.789
131.708
131.626
131.544
131.462
131.379
131.296
131.214
131.131
131.048
130.964
130.881
130.798
130.715
132.67
132.609
132.507
132.418
132.334
132.252
132.171
132.091
132.012
131.932
131.853
131.774
131.695
131.616
131.537
131.457
131.377
131.297
131.217
131.137
131.057
130.977
130.897
130.817
130.737
132.623
132.55
132.461
132.375
132.295
132.217
132.139
132.063
131.987
131.91
131.834
131.758
131.682
131.605
131.529
131.452
131.375
131.298
131.22
131.143
131.066
130.989
130.911
130.835
130.758
132.556
132.48
132.406
132.326
132.252
132.178
132.105
132.033
131.96
131.887
131.814
131.741
131.667
131.594
131.52
131.446
131.371
131.297
131.222
131.148
131.074
130.999
130.925
130.851
130.778
132.475
132.407
132.344
132.273
132.205
132.137
132.069
132
131.931
131.862
131.792
131.722
131.652
131.581
131.51
131.439
131.367
131.295
131.224
131.152
131.08
131.009
130.937
130.867
130.796
132.39
132.333
132.279
132.218
132.157
132.094
132.031
131.967
131.902
131.836
131.77
131.703
131.636
131.568
131.5
131.431
131.362
131.293
131.224
131.155
131.086
131.017
130.949
130.88
130.813
132.308
132.261
132.216
132.162
132.108
132.051
131.993
131.933
131.872
131.81
131.747
131.683
131.619
131.554
131.488
131.423
131.357
131.29
131.224
131.157
131.091
131.025
130.959
130.894
130.828
132.231
132.193
132.155
132.107
132.059
132.008
131.954
131.899
131.842
131.783
131.723
131.663
131.602
131.54
131.477
131.414
131.35
131.287
131.223
131.159
131.095
131.032
130.968
130.905
130.843
132.159
132.128
132.096
132.055
132.012
131.965
131.917
131.865
131.812
131.757
131.701
131.643
131.585
131.525
131.465
131.405
131.344
131.283
131.222
131.16
131.099
131.038
130.977
130.916
130.856
132.094
132.068
132.041
132.005
131.967
131.925
131.88
131.833
131.783
131.731
131.678
131.623
131.568
131.511
131.454
131.396
131.338
131.279
131.22
131.161
131.102
131.043
130.985
130.926
130.868
132.035
132.013
131.991
131.959
131.925
131.887
131.846
131.801
131.755
131.706
131.656
131.604
131.551
131.497
131.442
131.387
131.331
131.275
131.218
131.161
131.104
131.048
130.991
130.935
130.88
131.981
131.963
131.944
131.915
131.885
131.85
131.813
131.771
131.728
131.682
131.635
131.586
131.535
131.484
131.431
131.378
131.324
131.27
131.216
131.161
131.106
131.052
130.998
130.943
130.89
131.933
131.917
131.9
131.875
131.848
131.816
131.781
131.743
131.702
131.659
131.614
131.567
131.519
131.47
131.42
131.369
131.317
131.265
131.213
131.16
131.108
131.055
131.003
130.951
130.899
131.89
131.876
131.861
131.838
131.813
131.784
131.751
131.716
131.678
131.637
131.594
131.55
131.504
131.457
131.409
131.36
131.31
131.26
131.21
131.159
131.108
131.058
131.007
130.957
130.907
131.851
131.839
131.825
131.804
131.782
131.754
131.724
131.69
131.654
131.616
131.575
131.533
131.489
131.444
131.398
131.351
131.303
131.255
131.206
131.157
131.108
131.059
131.011
130.962
130.914
131.817
131.805
131.793
131.773
131.753
131.727
131.698
131.667
131.633
131.596
131.557
131.517
131.475
131.432
131.387
131.342
131.296
131.25
131.203
131.155
131.108
131.061
131.014
130.967
130.92
131.786
131.776
131.766
131.747
131.727
131.703
131.676
131.646
131.613
131.578
131.541
131.502
131.462
131.421
131.378
131.334
131.29
131.245
131.199
131.154
131.108
131.062
131.016
130.971
130.926
131.76
131.751
131.741
131.724
131.705
131.682
131.656
131.628
131.596
131.563
131.527
131.49
131.451
131.411
131.369
131.327
131.284
131.24
131.196
131.152
131.108
131.063
131.019
130.975
130.931
131.738
131.729
131.721
131.704
131.687
131.664
131.64
131.612
131.581
131.549
131.515
131.478
131.441
131.402
131.362
131.321
131.279
131.237
131.194
131.151
131.107
131.064
131.021
130.978
130.936
131.72
131.711
131.704
131.687
131.67
131.649
131.625
131.598
131.568
131.537
131.503
131.468
131.432
131.394
131.355
131.315
131.274
131.233
131.191
131.149
131.107
131.065
131.023
130.981
130.94
131.705
131.697
131.69
131.673
131.656
131.635
131.611
131.585
131.556
131.525
131.493
131.458
131.423
131.386
131.348
131.309
131.269
131.229
131.188
131.147
131.106
131.065
131.024
130.983
130.942
131.695
131.686
131.678
131.661
131.644
131.622
131.598
131.572
131.544
131.514
131.482
131.449
131.414
131.378
131.341
131.303
131.264
131.225
131.185
131.145
131.105
131.064
131.024
130.984
130.944
131.689
131.678
131.67
131.651
131.633
131.611
131.587
131.561
131.533
131.503
131.472
131.439
131.405
131.37
131.334
131.297
131.259
131.22
131.181
131.142
131.102
131.063
131.023
130.984
130.944
131.685
131.673
131.665
131.644
131.625
131.602
131.577
131.551
131.523
131.494
131.463
131.431
131.397
131.363
131.327
131.291
131.254
131.216
131.178
131.139
131.1
131.061
131.022
130.983
130.944
131.689
131.673
131.666
131.643
131.621
131.596
131.571
131.544
131.516
131.486
131.456
131.424
131.391
131.357
131.322
131.286
131.25
131.212
131.174
131.136
131.098
131.059
131.02
130.982
130.944
131.725
131.69
131.673
131.646
131.62
131.594
131.567
131.539
131.511
131.482
131.451
131.42
131.387
131.353
131.319
131.283
131.247
131.21
131.172
131.134
131.096
131.058
131.019
130.981
130.943
131.8
131.72
131.679
131.648
131.62
131.593
131.566
131.538
131.51
131.48
131.45
131.418
131.386
131.352
131.317
131.282
131.246
131.209
131.171
131.134
131.095
131.057
131.019
130.981
130.943
135.657
135.66
135.664
135.668
135.671
135.673
135.675
135.675
135.673
135.672
135.671
135.673
135.675
135.679
135.682
135.683
135.682
135.681
135.685
135.692
135.699
135.702
135.701
135.698
135.696
135.649
135.655
135.662
135.667
135.671
135.676
135.678
135.678
135.677
135.675
135.673
135.673
135.674
135.677
135.679
135.681
135.683
135.686
135.69
135.692
135.695
135.697
135.699
135.698
135.696
135.639
135.644
135.651
135.656
135.663
135.671
135.677
135.677
135.673
135.666
135.657
135.649
135.643
135.641
135.643
135.648
135.657
135.669
135.682
135.693
135.699
135.702
135.701
135.697
135.693
135.628
135.629
135.631
135.634
135.643
135.654
135.659
135.655
135.641
135.622
135.599
135.576
135.555
135.544
135.544
135.555
135.574
135.6
135.629
135.657
135.679
135.692
135.696
135.691
135.687
135.621
135.616
135.613
135.614
135.621
135.629
135.627
135.612
135.584
135.547
135.506
135.464
135.427
135.4
135.388
135.394
135.42
135.46
135.509
135.558
135.604
135.644
135.668
135.676
135.675
135.62
135.612
135.606
135.605
135.608
135.609
135.596
135.567
135.524
135.47
135.409
135.345
135.286
135.24
135.217
135.22
135.248
135.296
135.351
135.415
135.486
135.552
135.61
135.648
135.657
135.626
135.616
135.609
135.606
135.606
135.601
135.58
135.541
135.485
135.416
135.338
135.254
135.174
135.113
135.087
135.094
135.127
135.18
135.246
135.317
135.388
135.458
135.531
135.599
135.628
135.636
135.625
135.617
135.614
135.614
135.608
135.585
135.541
135.479
135.404
135.317
135.223
135.132
135.061
135.029
135.034
135.064
135.119
135.189
135.266
135.341
135.411
135.48
135.549
135.593
135.649
135.638
135.628
135.625
135.627
135.625
135.606
135.565
135.505
135.43
135.342
135.246
135.15
135.072
135.028
135.024
135.044
135.097
135.171
135.253
135.332
135.404
135.471
135.537
135.58
135.668
135.656
135.641
135.637
135.641
135.646
135.636
135.605
135.553
135.483
135.4
135.306
135.21
135.124
135.065
135.046
135.068
135.119
135.192
135.275
135.356
135.429
135.497
135.562
135.608
135.689
135.677
135.658
135.648
135.653
135.664
135.666
135.648
135.606
135.545
135.469
135.383
135.295
135.213
135.152
135.125
135.136
135.18
135.248
135.329
135.409
135.483
135.551
135.617
135.67
135.706
135.694
135.675
135.659
135.661
135.676
135.688
135.685
135.656
135.605
135.536
135.457
135.375
135.3
135.243
135.215
135.222
135.261
135.326
135.405
135.484
135.557
135.628
135.695
135.754
135.713
135.707
135.688
135.67
135.666
135.677
135.692
135.697
135.683
135.646
135.59
135.522
135.449
135.38
135.328
135.302
135.308
135.345
135.407
135.484
135.564
135.641
135.713
135.783
135.841
135.71
135.707
135.691
135.674
135.669
135.674
135.685
135.691
135.683
135.657
135.612
135.556
135.497
135.442
135.398
135.376
135.383
135.418
135.478
135.554
135.637
135.719
135.797
135.866
135.916
135.694
135.7
135.699
135.689
135.679
135.675
135.676
135.674
135.664
135.641
135.603
135.558
135.511
135.467
135.433
135.417
135.427
135.463
135.524
135.603
135.692
135.784
135.869
135.938
135.977
135.669
135.685
135.696
135.698
135.689
135.674
135.657
135.642
135.625
135.6
135.565
135.525
135.486
135.451
135.426
135.416
135.429
135.468
135.534
135.621
135.721
135.824
135.918
135.994
136.031
135.637
135.654
135.666
135.67
135.663
135.642
135.615
135.589
135.565
135.537
135.504
135.469
135.435
135.407
135.388
135.382
135.396
135.437
135.506
135.601
135.712
135.826
135.932
136.015
136.06
135.597
135.614
135.614
135.616
135.608
135.585
135.552
135.521
135.491
135.46
135.427
135.393
135.364
135.34
135.324
135.32
135.334
135.373
135.441
135.538
135.655
135.779
135.896
135.988
136.036
135.521
135.569
135.552
135.543
135.529
135.502
135.468
135.434
135.401
135.367
135.332
135.299
135.27
135.248
135.234
135.23
135.242
135.277
135.341
135.432
135.547
135.671
135.793
135.891
135.936
135.349
135.456
135.423
135.413
135.402
135.38
135.35
135.316
135.281
135.246
135.21
135.177
135.148
135.126
135.11
135.104
135.112
135.141
135.196
135.277
135.38
135.496
135.611
135.708
135.752
134.6
135.01
135.123
135.178
135.206
135.209
135.194
135.168
135.137
135.102
135.066
135.031
134.998
134.972
134.953
134.941
134.942
134.962
135.006
135.071
135.155
135.253
135.349
135.428
135.467
134.191
134.559
134.755
134.873
134.944
134.978
134.982
134.968
134.942
134.911
134.875
134.838
134.802
134.77
134.743
134.722
134.71
134.714
134.741
134.789
134.851
134.923
134.994
135.042
135.064
133.62
134.079
134.351
134.526
134.64
134.706
134.733
134.733
134.715
134.686
134.649
134.609
134.565
134.523
134.483
134.446
134.413
134.393
134.393
134.41
134.438
134.472
134.506
134.515
134.503
133.172
133.625
133.937
134.154
134.303
134.396
134.443
134.456
134.444
134.416
134.376
134.327
134.272
134.214
134.155
134.094
134.034
133.981
133.942
133.916
133.894
133.868
133.846
133.808
133.784
132.792
133.208
133.531
133.773
133.944
134.056
134.118
134.14
134.131
134.1
134.052
133.991
133.919
133.838
133.751
133.658
133.56
133.459
133.362
133.268
133.169
133.054
132.934
132.82
132.723
132.477
132.841
133.149
133.394
133.574
133.694
133.762
133.786
133.775
133.736
133.676
133.597
133.501
133.389
133.263
133.124
132.97
132.8
132.613
132.408
132.179
131.916
131.632
131.376
131.244
132.217
132.522
132.798
133.027
133.2
133.316
133.38
133.398
133.378
133.326
133.247
133.143
133.014
132.861
132.682
132.477
132.241
131.966
131.642
131.262
130.81
130.275
129.647
128.99
128.33
132.004
132.249
132.48
132.678
132.83
132.929
132.979
132.982
132.946
132.873
132.768
132.629
132.458
132.25
132
131.704
131.351
130.924
130.4
129.75
128.936
127.927
126.652
125.237
123.622
131.833
132.016
132.195
132.35
132.469
132.541
132.566
132.546
132.484
132.383
132.243
132.062
131.835
131.557
131.218
130.804
130.296
129.665
128.859
127.82
126.436
124.598
121.947
118.515
112.416
131.694
131.817
131.939
132.046
132.122
132.157
132.148
132.097
132.002
131.865
131.681
131.447
131.155
130.794
130.347
129.791
129.092
128.202
127.036
125.473
123.276
120.24
115.288
109.445
90.6464
131.581
131.647
131.71
131.765
131.792
131.783
131.734
131.644
131.51
131.328
131.094
130.799
130.431
129.974
129.404
128.687
127.77
126.582
124.99
122.803
119.544
114.733
105.133
89.0911
30.7602
131.483
131.497
131.505
131.503
131.478
131.422
131.329
131.196
131.016
130.785
130.494
130.13
129.679
129.118
128.415
127.525
126.381
124.88
122.856
120.05
115.887
109.634
98.7854
81.1954
52.0031
131.391
131.356
131.315
131.26
131.183
131.079
130.94
130.76
130.533
130.248
129.895
129.459
128.92
128.25
127.411
126.347
124.978
123.186
120.782
117.491
112.839
106.147
96.491
82.1587
65.023
131.299
131.22
131.135
131.032
130.907
130.757
130.572
130.345
130.067
129.727
129.311
128.802
128.174
127.396
126.424
125.193
123.616
121.563
118.846
115.189
110.198
103.313
93.883
80.7373
64.021
131.21
131.091
130.963
130.818
130.651
130.458
130.229
129.956
129.629
129.234
128.756
128.175
127.462
126.582
125.485
124.102
122.339
120.06
117.076
113.121
107.833
100.722
91.2275
78.6094
62.7588
131.117
130.965
130.8
130.619
130.415
130.183
129.913
129.597
129.223
128.777
128.241
127.592
126.802
125.829
124.622
123.107
121.184
118.714
115.507
111.303
105.756
98.4214
88.8223
76.4193
61.1093
131.014
130.837
130.645
130.434
130.199
129.933
129.627
129.272
128.856
128.363
127.775
127.068
126.21
125.159
123.86
122.236
120.184
117.562
114.176
109.762
103.973
96.362
86.4477
73.6534
57.9668
130.905
130.711
130.499
130.264
130.003
129.708
129.371
128.983
128.53
127.998
127.367
126.611
125.7
124.588
123.219
121.514
119.368
116.636
113.113
108.534
102.522
94.5961
84.2081
70.531
53.6676
130.798
130.591
130.362
130.108
129.826
129.507
129.145
128.73
128.248
127.685
127.021
126.23
125.28
124.128
122.716
120.965
118.765
115.971
112.363
107.661
101.411
93.1221
81.9981
66.9043
48
130.692
130.474
130.233
129.965
129.667
129.33
128.949
128.514
128.011
127.426
126.741
125.929
124.959
123.789
122.363
120.604
118.403
115.613
111.998
107.26
100.787
92.057
79.3264
61.7623
37.4207
130.589
130.364
130.114
129.836
129.526
129.177
128.783
128.334
127.819
127.222
126.526
125.708
124.737
123.573
122.165
120.44
118.299
115.6
112.121
107.549
101.209
92.4207
78.0599
57.6177
19.4748
130.489
130.259
130.004
129.72
129.403
129.048
128.647
128.191
127.671
127.071
126.377
125.565
124.61
123.476
122.115
120.467
118.444
115.927
112.734
108.604
103.025
95.371
82.9507
64.6249
13.5584
130.395
130.164
129.906
129.619
129.299
128.941
128.538
128.082
127.564
126.971
126.288
125.496
124.572
123.486
122.199
120.659
118.799
116.528
113.718
110.187
105.66
99.7929
91.7776
81.9028
62.1767
130.309
130.078
129.82
129.533
129.213
128.856
128.456
128.006
127.496
126.916
126.254
125.492
124.612
123.59
122.393
120.983
119.312
117.317
114.916
112.008
108.458
104.119
98.7832
92.4561
84.6241
130.233
130.002
129.746
129.462
129.145
128.793
128.4
127.959
127.463
126.903
126.268
125.545
124.718
123.768
122.672
121.403
119.927
118.208
116.2
113.858
111.139
108.031
104.586
101.077
98.1028
130.167
129.939
129.686
129.405
129.095
128.75
128.366
127.939
127.461
126.925
126.323
125.643
124.875
124.003
123.011
121.883
120.597
119.135
117.477
115.611
113.54
111.301
108.995
106.856
105.273
130.111
129.886
129.638
129.363
129.06
128.725
128.354
127.943
127.486
126.978
126.412
125.779
125.071
124.278
123.389
122.395
121.285
120.051
118.691
117.209
115.632
114.009
112.444
111.112
110.246
130.067
129.846
129.603
129.336
129.041
128.718
128.361
127.968
127.535
127.056
126.527
125.942
125.295
124.579
123.788
122.918
121.964
120.927
119.813
118.635
117.424
116.228
115.131
114.246
113.706
130.033
129.817
129.58
129.321
129.036
128.725
128.385
128.011
127.603
127.155
126.663
126.125
125.537
124.893
124.193
123.434
122.617
121.747
120.832
119.891
118.952