/*--------------------------------*- C++ -*----------------------------------*\
  =========                 |
  \\      /  F ield         | OpenFOAM: The Open Source CFD Toolbox
   \\    /   O peration     | Website:  https://openfoam.org
    \\  /    A nd           | Version:  13
     \\/     M anipulation  |
\*---------------------------------------------------------------------------*/
FoamFile
{
    format      ascii;
    class       volScalarField;
    location    "26";
    object      p;
}
// * * * * * * * * * * * * * * * * * * * * * * * * * * * * * * * * * * * * * //

dimensions      [0 2 -2 0 0 0 0];

internalField   nonuniform List<scalar> 
6440
(
0.000814194
0.000814242
0.00081436
0.000814537
0.000814769
0.000815041
0.000815325
0.000815599
0.000815838
0.000816016
0.000816106
0.000816085
0.000815937
0.00081565
0.000815223
0.000814665
0.000813995
0.000813225
0.000812385
0.000811502
0.000810582
0.000809634
0.00080868
0.000807718
0.000806867
0.000813859
0.000813911
0.000814032
0.000814217
0.000814459
0.000814745
0.000815062
0.000815385
0.000815691
0.000815954
0.000816146
0.000816239
0.000816205
0.000816022
0.000815675
0.000815155
0.000814458
0.000813589
0.000812556
0.000811372
0.000810046
0.000808607
0.000807107
0.000805582
0.000804186
0.000813336
0.000813407
0.000813551
0.000813767
0.000814051
0.000814387
0.000814764
0.000815167
0.000815573
0.000815943
0.000816247
0.000816452
0.000816522
0.000816425
0.00081613
0.000815613
0.000814856
0.00081385
0.000812604
0.000811123
0.000809421
0.000807558
0.000805609
0.000803683
0.000802001
0.000812631
0.000812724
0.000812899
0.000813159
0.000813498
0.000813901
0.000814354
0.000814838
0.000815329
0.000815805
0.000816216
0.000816522
0.000816683
0.000816658
0.000816406
0.00081589
0.000815084
0.000813968
0.000812548
0.000810816
0.000808816
0.000806616
0.000804309
0.000802059
0.000800148
0.000811715
0.000811828
0.000812035
0.000812339
0.000812735
0.000813205
0.000813735
0.000814302
0.000814881
0.000815443
0.000815959
0.000816366
0.000816622
0.000816681
0.000816491
0.000816009
0.000815195
0.000814025
0.000812492
0.000810574
0.000808345
0.000805867
0.000803246
0.00080069
0.00079854
0.000810569
0.000810702
0.000810939
0.000811286
0.000811735
0.000812271
0.000812874
0.000813522
0.000814187
0.00081484
0.000815447
0.00081596
0.000816321
0.00081648
0.000816382
0.000815973
0.000815205
0.00081404
0.000812456
0.000810425
0.000808019
0.000805303
0.000802393
0.000799538
0.000797141
0.000809192
0.000809341
0.000809607
0.000809996
0.000810498
0.000811096
0.00081177
0.000812495
0.000813243
0.000813983
0.00081468
0.000815301
0.000815775
0.00081605
0.000816068
0.000815769
0.000815092
0.000813988
0.000812417
0.000810344
0.000807804
0.00080488
0.000801699
0.000798548
0.000795903
0.000807588
0.000807753
0.000808046
0.000808475
0.000809027
0.000809685
0.000810428
0.000811228
0.000812059
0.000812886
0.000813678
0.000814401
0.000814988
0.000815388
0.00081554
0.000815377
0.000814831
0.000813837
0.000812333
0.000810282
0.00080765
0.000804553
0.000801117
0.000797676
0.000794786
0.000805768
0.000805948
0.000806266
0.000806731
0.000807331
0.000808047
0.000808855
0.00080973
0.000810641
0.000811555
0.000812438
0.000813255
0.00081396
0.000814489
0.000814783
0.000814775
0.000814388
0.000813543
0.000812153
0.000810169
0.000807534
0.000804294
0.000800625
0.000796902
0.000793773
0.000803748
0.000803941
0.00080428
0.000804778
0.000805421
0.000806189
0.000807061
0.000808006
0.000808996
0.000809996
0.000810968
0.000811877
0.000812703
0.000813359
0.000813795
0.000813946
0.000813733
0.000813064
0.000811833
0.000809969
0.000807412
0.000804084
0.000800218
0.000796234
0.000792877
0.000801547
0.000801748
0.000802105
0.00080263
0.000803309
0.000804124
0.000805052
0.000806064
0.000807128
0.000808211
0.000809278
0.000810291
0.000811223
0.000811999
0.000812573
0.000812882
0.000812847
0.000812366
0.000811331
0.000809643
0.000807207
0.000803938
0.000799913
0.000795692
0.000792118
0.000799187
0.000799393
0.000799761
0.000800303
0.000801008
0.000801858
0.000802831
0.000803899
0.000805032
0.000806194
0.000807349
0.000808462
0.000809492
0.000810409
0.000811124
0.000811585
0.000811721
0.00081143
0.000810624
0.000809169
0.000806933
0.000803799
0.000799736
0.000795312
0.000791527
0.000796695
0.000796901
0.00079727
0.000797818
0.000798532
0.000799398
0.000800398
0.000801506
0.000802693
0.000803926
0.000805167
0.000806376
0.000807527
0.000808586
0.000809446
0.000810061
0.000810366
0.000810269
0.000809717
0.00080855
0.00080659
0.000803672
0.000799729
0.000795159
0.000791195
0.000794102
0.000794301
0.000794662
0.000795198
0.000795902
0.000796761
0.000797761
0.000798882
0.000800097
0.000801379
0.000802692
0.000803998
0.000805263
0.000806472
0.0008075
0.000808294
0.000808786
0.000808913
0.000808634
0.000807795
0.000806192
0.000803601
0.000799876
0.000795337
0.000791217
0.000791444
0.000791632
0.000791971
0.000792478
0.000793148
0.000793971
0.000794937
0.000796032
0.000797235
0.000798524
0.000799873
0.000801249
0.000802609
0.00080393
0.000805195
0.000806221
0.000806949
0.000807353
0.000807371
0.000806895
0.00080574
0.000803626
0.000800276
0.000795949
0.00079172
0.000788763
0.000788932
0.000789238
0.000789698
0.000790307
0.000791062
0.000791954
0.000792975
0.000794113
0.000795353
0.000796678
0.000798067
0.000799493
0.000800924
0.000802402
0.000803705
0.00080478
0.000805528
0.000805923
0.000805924
0.000805353
0.000803891
0.000801123
0.000797143
0.000792909
0.000786102
0.000786245
0.000786506
0.000786899
0.000787423
0.000788075
0.000788852
0.000789747
0.000790757
0.000791876
0.000793097
0.000794411
0.00079581
0.000797276
0.00079883
0.000800438
0.000801915
0.000803143
0.000804138
0.000804858
0.00080511
0.000804542
0.000802615
0.000799203
0.000795008
0.000783503
0.000783617
0.000783822
0.000784132
0.000784546
0.000785064
0.000785683
0.000786402
0.000787221
0.000788142
0.000789165
0.000790295
0.000791537
0.000792894
0.000794362
0.000796134
0.000797924
0.000799726
0.000801464
0.000803142
0.000804546
0.000805282
0.000804671
0.000802383
0.000798623
0.000781011
0.000781091
0.000781233
0.000781449
0.000781737
0.000782096
0.000782528
0.000783031
0.000783608
0.000784266
0.000785011
0.000785854
0.000786811
0.000787901
0.000789145
0.000790643
0.00079258
0.000794792
0.000797197
0.000799903
0.000802735
0.000805328
0.00080688
0.000806992
0.000805299
0.000778659
0.000778707
0.00077879
0.000778913
0.000779077
0.00077928
0.000779525
0.000779811
0.000780144
0.00078053
0.00078098
0.00078151
0.000782139
0.000782897
0.000783826
0.000784969
0.000786619
0.000788861
0.000791594
0.000794908
0.000798838
0.000803375
0.000808155
0.00081284
0.000817112
0.000776476
0.000776514
0.000776569
0.000776646
0.000776746
0.000776868
0.000777013
0.000777183
0.000777382
0.000777617
0.0007779
0.000778246
0.000778677
0.000779222
0.000779924
0.00078084
0.00078204
0.000783877
0.000786501
0.000789583
0.000793381
0.000798176
0.000804628
0.000814691
0.000832714
0.000774406
0.000774445
0.000774502
0.000774578
0.000774676
0.000774797
0.000774941
0.00077511
0.000775309
0.000775546
0.000775832
0.000776183
0.000776623
0.000777183
0.000777905
0.000778855
0.000780123
0.000781855
0.000784162
0.000787038
0.000790659
0.000795366
0.000801831
0.000811238
0.000824542
0.00077245
0.000772494
0.000772558
0.000772643
0.000772752
0.000772886
0.000773046
0.000773234
0.000773454
0.000773715
0.000774027
0.000774406
0.000774876
0.000775467
0.000776219
0.000777188
0.000778448
0.000780092
0.000782201
0.000784844
0.000788167
0.000792403
0.000797922
0.000805097
0.000813602
0.000770604
0.000770653
0.000770723
0.000770816
0.000770934
0.000771079
0.000771251
0.000771453
0.000771688
0.000771963
0.000772289
0.000772681
0.000773159
0.000773751
0.000774492
0.000775426
0.000776608
0.000778103
0.000779974
0.000782282
0.000785111
0.000788571
0.00079276
0.000797614
0.000802516
0.000768866
0.000768918
0.000768992
0.000769089
0.000769212
0.000769362
0.000769538
0.000769743
0.000769981
0.000770256
0.000770578
0.000770959
0.000771418
0.000771976
0.000772662
0.000773509
0.000774556
0.000775844
0.000777412
0.000779294
0.000781517
0.000784089
0.00078695
0.000789911
0.000792419
0.000767233
0.000767287
0.000767363
0.000767461
0.000767584
0.000767732
0.000767906
0.000768106
0.000768335
0.000768597
0.000768898
0.00076925
0.000769666
0.000770163
0.000770761
0.000771485
0.000772357
0.000773401
0.000774631
0.000776054
0.000777655
0.000779389
0.000781146
0.000782664
0.000783592
0.000765705
0.000765759
0.000765834
0.00076593
0.000766049
0.000766191
0.000766356
0.000766543
0.000766754
0.000766991
0.00076726
0.000767567
0.000767922
0.000768338
0.000768827
0.000769403
0.000770079
0.000770861
0.000771747
0.000772721
0.000773745
0.000774744
0.000775592
0.000776082
0.000775949
0.000764278
0.000764332
0.000764404
0.000764495
0.000764607
0.000764738
0.000764888
0.000765056
0.000765241
0.000765445
0.00076567
0.000765921
0.000766204
0.000766525
0.000766892
0.000767311
0.000767783
0.000768305
0.000768862
0.000769425
0.000769942
0.000770335
0.000770484
0.000770226
0.000769366
0.000762951
0.000763003
0.000763071
0.000763155
0.000763256
0.000763373
0.000763504
0.000763647
0.0007638
0.000763964
0.000764139
0.000764326
0.000764529
0.000764749
0.00076499
0.000765249
0.000765523
0.000765798
0.000766055
0.000766255
0.000766347
0.000766253
0.000765872
0.000765075
0.000763718
0.000761722
0.000761771
0.000761834
0.000761909
0.000761997
0.000762096
0.000762204
0.000762319
0.000762437
0.000762556
0.000762676
0.000762796
0.000762915
0.000763033
0.000763147
0.000763252
0.000763339
0.000763391
0.000763382
0.000763274
0.000763017
0.000762541
0.000761762
0.000760581
0.00075889
0.00076059
0.000760635
0.000760691
0.000760756
0.000760829
0.000760908
0.000760992
0.000761075
0.000761154
0.000761227
0.00076129
0.000761341
0.000761377
0.000761394
0.000761388
0.00076135
0.000761267
0.00076112
0.000760883
0.000760519
0.000759981
0.000759211
0.00075814
0.000756689
0.000754778
0.000759552
0.000759594
0.000759642
0.000759695
0.000759752
0.000759811
0.000759868
0.000759918
0.000759958
0.000759983
0.000759989
0.000759972
0.000759927
0.000759849
0.000759731
0.000759562
0.000759329
0.000759011
0.000758582
0.00075801
0.000757252
0.000756259
0.000754975
0.00075334
0.000751293
0.000758608
0.000758646
0.000758686
0.000758726
0.000758767
0.000758803
0.000758833
0.00075885
0.000758851
0.000758828
0.000758779
0.000758697
0.000758576
0.000758411
0.000758191
0.000757907
0.000757543
0.00075708
0.000756494
0.000755755
0.000754827
0.000753669
0.000752236
0.000750481
0.000748357
0.000757757
0.00075779
0.000757821
0.000757849
0.000757872
0.000757887
0.000757889
0.000757874
0.000757836
0.000757768
0.000757666
0.000757523
0.000757333
0.000757088
0.000756779
0.000756394
0.000755919
0.000755337
0.000754624
0.000753754
0.000752698
0.000751422
0.000749889
0.000748062
0.000745906
0.000756995
0.000757024
0.000757047
0.000757062
0.000757068
0.000757061
0.000757037
0.00075699
0.000756915
0.000756805
0.000756654
0.000756455
0.000756202
0.000755887
0.0007555
0.00075503
0.000754463
0.000753783
0.00075297
0.000752002
0.000750852
0.000749494
0.000747899
0.000746037
0.000743882
0.000756323
0.000756346
0.000756361
0.000756364
0.000756354
0.000756326
0.000756277
0.0007562
0.00075609
0.00075594
0.000755745
0.000755496
0.000755188
0.000754812
0.000754358
0.000753817
0.000753175
0.000752418
0.000751529
0.000750488
0.000749274
0.000747864
0.000746236
0.000744367
0.000742237
0.000755737
0.000755756
0.000755763
0.000755754
0.000755728
0.000755681
0.000755608
0.000755503
0.000755361
0.000755175
0.00075494
0.000754647
0.000754291
0.000753863
0.000753354
0.000752755
0.000752054
0.000751238
0.000750293
0.000749201
0.000747945
0.000746508
0.00074487
0.000743015
0.000740927
0.000755236
0.000755251
0.000755251
0.000755231
0.00075519
0.000755124
0.000755029
0.000754899
0.000754728
0.00075451
0.00075424
0.000753909
0.000753512
0.000753041
0.000752487
0.000751842
0.000751096
0.000750237
0.000749252
0.000748127
0.000746849
0.000745403
0.000743774
0.000741949
0.000739916
0.000754818
0.000754829
0.000754822
0.000754791
0.000754736
0.000754654
0.000754539
0.000754386
0.000754189
0.000753944
0.000753643
0.00075328
0.000752849
0.000752343
0.000751754
0.000751074
0.000750295
0.000749405
0.000748396
0.000747254
0.000745969
0.000744529
0.000742922
0.000741139
0.000739171
0.000754481
0.000754488
0.000754474
0.000754434
0.000754367
0.000754269
0.000754136
0.000753962
0.000753744
0.000753474
0.000753147
0.000752757
0.000752299
0.000751765
0.00075115
0.000750445
0.000749643
0.000748735
0.000747713
0.000746567
0.000745287
0.000743865
0.000742291
0.000740559
0.000738661
0.000754221
0.000754225
0.000754204
0.000754156
0.000754078
0.000753966
0.000753817
0.000753626
0.000753388
0.000753098
0.00075275
0.000752339
0.000751859
0.000751305
0.00075067
0.000749948
0.000749133
0.000748217
0.000747192
0.000746051
0.000744787
0.000743392
0.00074186
0.000740184
0.000738362
0.000754036
0.000754037
0.000754011
0.000753955
0.000753867
0.000753743
0.000753581
0.000753375
0.00075312
0.000752813
0.000752448
0.00075202
0.000751525
0.000750956
0.000750309
0.000749577
0.000748757
0.00074784
0.000746821
0.000745694
0.000744453
0.000743093
0.000741608
0.000739994
0.00073825
0.000753923
0.000753921
0.000753891
0.000753828
0.000753731
0.000753597
0.000753423
0.000753204
0.000752937
0.000752616
0.000752238
0.000751798
0.000751291
0.000750713
0.000750059
0.000749325
0.000748505
0.000747595
0.000746589
0.000745483
0.000744271
0.000742951
0.000741517
0.000739968
0.000738303
0.00075388
0.000753875
0.00075384
0.000753772
0.000753668
0.000753525
0.000753341
0.000753112
0.000752834
0.000752503
0.000752115
0.000751666
0.000751152
0.00075057
0.000749915
0.000749183
0.00074837
0.000747471
0.000746484
0.000745403
0.000744226
0.00074295
0.000741571
0.000740089
0.000738503
0.000753902
0.000753895
0.000753857
0.000753783
0.000753673
0.000753523
0.000753331
0.000753094
0.000752807
0.000752469
0.000752074
0.00075162
0.000751104
0.000750521
0.000749869
0.000749144
0.000748342
0.00074746
0.000746496
0.000745445
0.000744306
0.000743076
0.000741754
0.000740339
0.000738832
0.000753986
0.000753978
0.000753936
0.000753859
0.000753743
0.000753587
0.000753389
0.000753146
0.000752853
0.00075251
0.000752112
0.000751656
0.00075114
0.000750561
0.000749915
0.0007492
0.000748413
0.000747552
0.000746613
0.000745596
0.000744497
0.000743316
0.000742052
0.000740705
0.000739276
0.00075413
0.00075412
0.000754076
0.000753995
0.000753875
0.000753715
0.000753512
0.000753264
0.000752968
0.000752622
0.000752222
0.000751767
0.000751255
0.000750681
0.000750045
0.000749344
0.000748575
0.000747737
0.000746828
0.000745846
0.000744789
0.000743658
0.000742453
0.000741173
0.00073982
0.00075433
0.000754318
0.000754272
0.000754188
0.000754065
0.000753902
0.000753696
0.000753445
0.000753146
0.000752799
0.000752401
0.000751949
0.000751442
0.000750878
0.000750254
0.000749569
0.00074882
0.000748008
0.000747129
0.000746184
0.000745171
0.000744091
0.000742943
0.000741729
0.000740451
0.000754582
0.000754568
0.000754521
0.000754435
0.00075431
0.000754144
0.000753936
0.000753683
0.000753385
0.000753039
0.000752643
0.000752197
0.000751697
0.000751144
0.000750534
0.000749867
0.000749141
0.000748355
0.000747509
0.000746602
0.000745633
0.000744603
0.000743513
0.000742364
0.000741158
0.000754882
0.000754868
0.000754819
0.000754732
0.000754605
0.000754438
0.000754228
0.000753976
0.000753679
0.000753335
0.000752944
0.000752504
0.000752014
0.000751473
0.000750879
0.000750232
0.00074953
0.000748772
0.00074796
0.000747091
0.000746166
0.000745187
0.000744153
0.000743067
0.000741931
0.000755228
0.000755213
0.000755163
0.000755075
0.000754947
0.000754779
0.00075457
0.000754319
0.000754024
0.000753684
0.000753299
0.000752867
0.000752388
0.00075186
0.000751284
0.000750657
0.00074998
0.000749252
0.000748472
0.000747642
0.000746762
0.000745832
0.000744853
0.000743828
0.000742759
0.000755616
0.0007556
0.00075555
0.000755461
0.000755333
0.000755165
0.000754957
0.000754707
0.000754416
0.000754081
0.000753703
0.00075328
0.000752813
0.0007523
0.000751742
0.000751137
0.000750485
0.000749786
0.000749041
0.000748249
0.000747412
0.00074653
0.000745605
0.00074464
0.000743635
0.000756042
0.000756026
0.000755975
0.000755886
0.000755758
0.000755591
0.000755385
0.000755138
0.000754851
0.000754522
0.000754151
0.000753739
0.000753285
0.000752788
0.000752248
0.000751665
0.000751039
0.00075037
0.000749658
0.000748904
0.00074811
0.000747275
0.000746402
0.000745493
0.000744551
0.000756504
0.000756487
0.000756436
0.000756347
0.00075622
0.000756055
0.000755851
0.000755607
0.000755324
0.000755002
0.000754641
0.000754239
0.000753798
0.000753318
0.000752797
0.000752236
0.000751636
0.000750997
0.000750318
0.000749602
0.000748848
0.00074806
0.000747237
0.000746383
0.000745499
0.000756997
0.000756979
0.000756929
0.00075684
0.000756715
0.000756551
0.00075635
0.000756111
0.000755834
0.000755519
0.000755166
0.000754776
0.000754349
0.000753885
0.000753384
0.000752846
0.000752271
0.000751661
0.000751015
0.000750335
0.000749622
0.000748877
0.000748103
0.000747301
0.000746474
0.000757519
0.000757501
0.000757451
0.000757363
0.000757239
0.000757078
0.00075688
0.000756645
0.000756374
0.000756067
0.000755724
0.000755346
0.000754933
0.000754486
0.000754004
0.000753488
0.000752939
0.000752358
0.000751744
0.000751099
0.000750425
0.000749723
0.000748995
0.000748242
0.000747469
0.000758066
0.000758048
0.000757998
0.000757912
0.00075779
0.000757632
0.000757437
0.000757207
0.000756943
0.000756644
0.000756311
0.000755945
0.000755546
0.000755116
0.000754653
0.00075416
0.000753636
0.000753082
0.000752499
0.000751889
0.000751252
0.000750591
0.000749907
0.000749202
0.000748479
0.000758636
0.000758618
0.000758569
0.000758484
0.000758364
0.000758209
0.000758018
0.000757794
0.000757536
0.000757245
0.000756922
0.000756568
0.000756184
0.00075577
0.000755327
0.000754855
0.000754356
0.000753829
0.000753277
0.0007527
0.000752099
0.000751477
0.000750835
0.000750175
0.0007495
0.000759226
0.000759208
0.00075916
0.000759076
0.000758958
0.000758806
0.00075862
0.000758401
0.00075815
0.000757868
0.000757555
0.000757214
0.000756844
0.000756446
0.000756022
0.000755572
0.000755096
0.000754596
0.000754073
0.000753527
0.000752961
0.000752376
0.000751774
0.000751158
0.000750528
0.000759832
0.000759815
0.000759767
0.000759686
0.00075957
0.000759421
0.00075924
0.000759027
0.000758782
0.000758509
0.000758207
0.000757877
0.000757521
0.00075714
0.000756734
0.000756305
0.000755852
0.000755378
0.000754882
0.000754368
0.000753835
0.000753285
0.000752721
0.000752145
0.000751558
0.000760453
0.000760436
0.000760389
0.00076031
0.000760197
0.000760051
0.000759875
0.000759667
0.00075943
0.000759165
0.000758873
0.000758556
0.000758214
0.000757849
0.000757461
0.000757051
0.000756621
0.000756171
0.000755703
0.000755217
0.000754716
0.0007542
0.000753672
0.000753134
0.000752588
0.000761085
0.000761069
0.000761023
0.000760945
0.000760835
0.000760694
0.000760522
0.00076032
0.00076009
0.000759834
0.000759552
0.000759246
0.000758918
0.000758568
0.000758198
0.000757808
0.000757399
0.000756973
0.00075653
0.000756073
0.000755601
0.000755118
0.000754624
0.000754122
0.000753614
0.000761727
0.000761711
0.000761667
0.000761591
0.000761484
0.000761346
0.000761178
0.000760983
0.00076076
0.000760512
0.00076024
0.000759946
0.000759632
0.000759297
0.000758943
0.000758572
0.000758184
0.00075778
0.000757362
0.000756931
0.000756488
0.000756035
0.000755574
0.000755106
0.000754633
0.000762375
0.00076236
0.000762317
0.000762243
0.000762139
0.000762005
0.000761843
0.000761653
0.000761437
0.000761198
0.000760936
0.000760653
0.000760351
0.000760031
0.000759694
0.00075934
0.000758972
0.00075859
0.000758196
0.00075779
0.000757374
0.00075695
0.000756519
0.000756083
0.000755644
0.000763028
0.000763013
0.000762972
0.000762901
0.0007628
0.00076267
0.000762512
0.000762328
0.000762119
0.000761888
0.000761636
0.000761364
0.000761075
0.000760768
0.000760447
0.000760111
0.000759762
0.0007594
0.000759028
0.000758646
0.000758256
0.000757859
0.000757456
0.00075705
0.000756643
0.000763683
0.00076367
0.00076363
0.000763561
0.000763463
0.000763337
0.000763184
0.000763006
0.000762804
0.000762581
0.000762338
0.000762077
0.0007618
0.000761507
0.0007612
0.000760881
0.00076055
0.000760208
0.000759857
0.000759498
0.000759131
0.00075876
0.000758384
0.000758007
0.000757629
0.000764339
0.000764326
0.000764289
0.000764222
0.000764128
0.000764005
0.000763857
0.000763685
0.00076349
0.000763275
0.000763041
0.00076279
0.000762524
0.000762244
0.000761952
0.000761648
0.000761334
0.000761011
0.00076068
0.000760342
0.000759999
0.000759651
0.000759301
0.00075895
0.0007586
0.000764993
0.000764982
0.000764946
0.000764882
0.000764791
0.000764673
0.00076453
0.000764363
0.000764174
0.000763967
0.000763742
0.000763501
0.000763246
0.000762979
0.0007627
0.000762411
0.000762114
0.000761808
0.000761496
0.000761178
0.000760856
0.000760531
0.000760205
0.000759879
0.000759554
0.000765644
0.000765635
0.000765601
0.00076554
0.000765452
0.000765338
0.000765199
0.000765038
0.000764856
0.000764656
0.000764439
0.000764208
0.000763963
0.000763708
0.000763442
0.000763168
0.000762885
0.000762597
0.000762302
0.000762003
0.000761702
0.000761398
0.000761094
0.000760791
0.00076049
0.00076629
0.000766282
0.000766251
0.000766193
0.000766108
0.000765998
0.000765864
0.000765708
0.000765533
0.00076534
0.000765131
0.000764909
0.000764675
0.00076443
0.000764177
0.000763916
0.000763648
0.000763375
0.000763097
0.000762816
0.000762533
0.00076225
0.000761966
0.000761685
0.000761406
0.00076693
0.000766924
0.000766895
0.00076684
0.000766759
0.000766653
0.000766523
0.000766373
0.000766204
0.000766017
0.000765816
0.000765603
0.000765378
0.000765145
0.000764903
0.000764654
0.0007644
0.000764142
0.00076388
0.000763616
0.00076335
0.000763085
0.000762821
0.00076256
0.000762302
0.000767562
0.000767558
0.000767532
0.00076748
0.000767402
0.0007673
0.000767176
0.00076703
0.000766867
0.000766687
0.000766493
0.000766288
0.000766073
0.000765849
0.000765618
0.000765382
0.00076514
0.000764896
0.000764648
0.0007644
0.000764151
0.000763903
0.000763657
0.000763415
0.000763176
0.000768185
0.000768183
0.00076816
0.000768111
0.000768037
0.000767939
0.000767819
0.000767679
0.000767521
0.000767348
0.000767161
0.000766964
0.000766757
0.000766542
0.000766322
0.000766096
0.000765867
0.000765635
0.000765401
0.000765167
0.000764934
0.000764702
0.000764473
0.000764248
0.000764028
0.000768797
0.000768798
0.000768778
0.000768733
0.000768663
0.000768569
0.000768453
0.000768318
0.000768166
0.000767998
0.000767818
0.000767628
0.000767429
0.000767223
0.000767012
0.000766797
0.000766579
0.000766359
0.000766138
0.000765918
0.000765698
0.000765482
0.000765268
0.000765059
0.000764856
0.000769398
0.000769402
0.000769386
0.000769344
0.000769278
0.000769188
0.000769077
0.000768947
0.000768799
0.000768638
0.000768464
0.00076828
0.000768089
0.000767891
0.000767689
0.000767483
0.000767275
0.000767066
0.000766857
0.000766649
0.000766443
0.00076624
0.000766041
0.000765847
0.000765659
0.000769986
0.000769994
0.000769982
0.000769944
0.000769882
0.000769796
0.00076969
0.000769564
0.000769421
0.000769265
0.000769097
0.000768919
0.000768735
0.000768544
0.00076835
0.000768153
0.000767954
0.000767756
0.000767557
0.000767361
0.000767167
0.000766977
0.000766791
0.000766611
0.000766437
0.000770561
0.000770572
0.000770565
0.000770532
0.000770474
0.000770393
0.00077029
0.000770169
0.000770031
0.000769879
0.000769716
0.000769545
0.000769366
0.000769182
0.000768995
0.000768806
0.000768616
0.000768426
0.000768238
0.000768052
0.000767869
0.00076769
0.000767517
0.00076735
0.00076719
0.000771121
0.000771138
0.000771136
0.000771107
0.000771053
0.000770977
0.000770878
0.000770761
0.000770628
0.00077048
0.000770322
0.000770155
0.000769982
0.000769804
0.000769623
0.000769441
0.000769259
0.000769077
0.000768898
0.000768721
0.000768548
0.00076838
0.000768218
0.000768063
0.000767915
0.000771668
0.000771689
0.000771693
0.000771669
0.00077162
0.000771548
0.000771454
0.000771341
0.000771211
0.000771067
0.000770913
0.00077075
0.000770582
0.000770409
0.000770234
0.000770058
0.000769882
0.000769708
0.000769536
0.000769368
0.000769204
0.000769046
0.000768894
0.00076875
0.000768613
0.000772199
0.000772227
0.000772237
0.000772219
0.000772175
0.000772107
0.000772017
0.000771907
0.00077178
0.00077164
0.000771489
0.00077133
0.000771165
0.000770996
0.000770826
0.000770655
0.000770485
0.000770317
0.000770152
0.000769991
0.000769836
0.000769686
0.000769544
0.000769409
0.000769282
0.000772715
0.00077275
0.000772767
0.000772756
0.000772717
0.000772653
0.000772567
0.00077246
0.000772336
0.000772198
0.00077205
0.000771893
0.000771731
0.000771565
0.000771398
0.000771231
0.000771066
0.000770903
0.000770744
0.00077059
0.000770442
0.0007703
0.000770166
0.00077004
0.000769923
0.000773216
0.00077326
0.000773285
0.00077328
0.000773247
0.000773187
0.000773104
0.000773
0.000772878
0.000772742
0.000772595
0.000772439
0.000772279
0.000772116
0.000771951
0.000771787
0.000771625
0.000771467
0.000771313
0.000771164
0.000771022
0.000770887
0.000770761
0.000770643
0.000770534
0.000773703
0.000773756
0.000773791
0.000773793
0.000773766
0.00077371
0.00077363
0.000773528
0.000773407
0.000773271
0.000773124
0.000772969
0.000772809
0.000772646
0.000772483
0.000772321
0.000772162
0.000772006
0.000771856
0.000771712
0.000771575
0.000771447
0.000771326
0.000771216
0.000771115
0.000774175
0.00077424
0.000774286
0.000774297
0.000774275
0.000774223
0.000774145
0.000774043
0.000773922
0.000773785
0.000773637
0.000773481
0.00077332
0.000773157
0.000772993
0.000772832
0.000772674
0.000772521
0.000772373
0.000772233
0.000772101
0.000771977
0.000771862
0.000771758
0.000771665
0.000774635
0.000774713
0.000774773
0.000774792
0.000774776
0.000774728
0.00077465
0.000774548
0.000774425
0.000774285
0.000774134
0.000773975
0.000773812
0.000773646
0.000773482
0.00077332
0.000773162
0.000773009
0.000772864
0.000772726
0.000772597
0.000772477
0.000772368
0.000772269
0.000772182
0.000775083
0.000775179
0.000775253
0.000775282
0.000775272
0.000775225
0.000775147
0.000775042
0.000774915
0.000774771
0.000774615
0.000774451
0.000774283
0.000774114
0.000773946
0.000773782
0.000773623
0.000773471
0.000773326
0.00077319
0.000773063
0.000772947
0.000772842
0.000772748
0.000772666
0.000775524
0.000775639
0.000775731
0.00077577
0.000775765
0.000775719
0.000775639
0.000775528
0.000775394
0.000775243
0.000775079
0.000774908
0.000774734
0.000774559
0.000774387
0.000774219
0.000774058
0.000773904
0.000773759
0.000773624
0.000773499
0.000773385
0.000773283
0.000773194
0.000773117
0.00077596
0.000776099
0.000776211
0.000776262
0.00077626
0.000776213
0.000776126
0.000776007
0.000775863
0.000775701
0.000775527
0.000775346
0.000775163
0.00077498
0.000774802
0.000774629
0.000774464
0.000774308
0.000774162
0.000774026
0.000773902
0.00077379
0.000773691
0.000773605
0.000773533
0.000776397
0.000776566
0.000776702
0.000776764
0.000776763
0.00077671
0.000776612
0.00077648
0.000776321
0.000776144
0.000775956
0.000775762
0.000775568
0.000775376
0.000775189
0.00077501
0.00077484
0.000774681
0.000774532
0.000774396
0.000774272
0.000774161
0.000774064
0.000773981
0.000773913
0.000776844
0.00077705
0.000777213
0.000777285
0.00077728
0.000777215
0.000777101
0.000776948
0.000776769
0.000776573
0.000776366
0.000776156
0.000775948
0.000775744
0.000775548
0.000775361
0.000775185
0.000775021
0.00077487
0.000774732
0.000774607
0.000774497
0.000774402
0.000774322
0.000774257
0.000777313
0.000777565
0.000777759
0.000777836
0.000777821
0.000777734
0.000777593
0.000777413
0.000777206
0.000776984
0.000776755
0.000776526
0.0007763
0.000776083
0.000775875
0.000775679
0.000775496
0.000775327
0.000775172
0.000775032
0.000774907
0.000774797
0.000774703
0.000774625
0.000774563
0.000777826
0.000778133
0.00077836
0.000778434
0.000778394
0.000778273
0.000778093
0.000777874
0.000777631
0.000777376
0.00077712
0.000776866
0.000776622
0.000776388
0.000776168
0.000775963
0.000775772
0.000775598
0.000775439
0.000775296
0.00077517
0.00077506
0.000774967
0.00077489
0.00077483
0.000778418
0.000778789
0.000779046
0.000779099
0.000779013
0.000778836
0.000778599
0.000778328
0.000778038
0.000777745
0.000777455
0.000777175
0.000776909
0.000776658
0.000776425
0.000776209
0.000776011
0.00077583
0.000775668
0.000775523
0.000775395
0.000775285
0.000775192
0.000775117
0.000775059
0.00077915
0.000779586
0.000779856
0.000779855
0.000779688
0.000779425
0.00077911
0.000778769
0.000778422
0.000778082
0.000777755
0.000777445
0.000777156
0.000776888
0.000776641
0.000776415
0.00077621
0.000776024
0.000775858
0.00077571
0.000775581
0.000775471
0.000775379
0.000775304
0.000775249
0.000780138
0.000780612
0.000780847
0.000780731
0.000780428
0.000780039
0.000779616
0.000779188
0.000778772
0.000778378
0.000778011
0.000777671
0.000777359
0.000777074
0.000776814
0.000776579
0.000776367
0.000776177
0.000776007
0.000775858
0.000775728
0.000775617
0.000775526
0.000775453
0.000775398
0.000781587
0.000781999
0.000782092
0.000781754
0.000781232
0.000780662
0.000780098
0.000779564
0.000779071
0.000778621
0.000778213
0.000777844
0.000777511
0.000777211
0.000776941
0.000776698
0.000776481
0.000776287
0.000776116
0.000775965
0.000775835
0.000775724
0.000775633
0.000775561
0.000775508
0.000783851
0.000783942
0.000783663
0.000782928
0.000782076
0.00078126
0.000780525
0.000779873
0.0007793
0.000778795
0.00077835
0.000777956
0.000777607
0.000777296
0.000777018
0.000776771
0.00077655
0.000776355
0.000776182
0.000776032
0.000775902
0.000775792
0.000775702
0.000775631
0.000775579
0.000787853
0.000786854
0.000785615
0.000784187
0.000782871
0.000781758
0.000780835
0.000780068
0.000779423
0.000778876
0.000778405
0.000777996
0.000777638
0.000777322
0.000777042
0.000776793
0.000776573
0.000776378
0.000776206
0.000776057
0.000775928
0.000775819
0.00077573
0.00077566
0.000775609
0.000796796
0.000791651
0.000787883
0.000785322
0.000783435
0.000782013
0.000780929
0.000780082
0.000779401
0.000778837
0.00077836
0.000777951
0.000777595
0.000777282
0.000777006
0.000776762
0.000776545