/*--------------------------------*- C++ -*----------------------------------*\
  =========                 |
  \\      /  F ield         | OpenFOAM: The Open Source CFD Toolbox
   \\    /   O peration     | Website:  https://openfoam.org
    \\  /    A nd           | Version:  13
     \\/     M anipulation  |
\*---------------------------------------------------------------------------*/
FoamFile
{
    format      ascii;
    class       surfaceScalarField;
    location    "26";
    object      phi;
}
// * * * * * * * * * * * * * * * * * * * * * * * * * * * * * * * * * * * * * //

dimensions      [0 3 -1 0 0 0 0];

internalField   nonuniform List<scalar> 
12590
(
-3.20455e-13
3.20449e-13
-7.20513e-13
4.0005e-13
-1.02407e-12
3.03549e-13
-1.25525e-12
2.31172e-13
-1.43096e-12
1.75699e-13
-1.50172e-12
7.07516e-14
-1.49177e-12
-9.95474e-15
-1.39384e-12
-9.79434e-14
-1.2048e-12
-1.89047e-13
-9.23766e-13
-2.81043e-13
-5.569e-13
-3.66874e-13
-1.17635e-13
-4.39273e-13
3.73699e-13
-4.91342e-13
8.89216e-13
-5.15525e-13
1.3975e-12
-5.08292e-13
1.86044e-12
-4.62949e-13
2.2503e-12
-3.89857e-13
2.55801e-12
-3.0772e-13
2.72939e-12
-1.71379e-13
2.84645e-12
-1.1707e-13
2.90619e-12
-5.97424e-14
2.78777e-12
1.1842e-13
2.43543e-12
3.52345e-13
1.40586e-12
1.02957e-12
1.40586e-12
-2.18525e-13
5.38963e-13
-4.29407e-13
6.10919e-13
-5.1009e-13
3.84218e-13
-4.9541e-13
2.16478e-13
-4.14859e-13
9.51336e-14
-3.03685e-13
-4.04361e-14
-9.73613e-14
-2.16292e-13
1.72413e-13
-3.67731e-13
4.85321e-13
-5.01969e-13
8.27425e-13
-6.2316e-13
1.18594e-12
-7.25404e-13
1.54189e-12
-7.95235e-13
1.87366e-12
-8.23129e-13
2.15307e-12
-7.94945e-13
2.34554e-12
-7.00768e-13
2.42613e-12
-5.43556e-13
2.36995e-12
-3.33687e-13
2.15271e-12
-9.04872e-14
1.75328e-12
2.28045e-13
1.2181e-12
4.18104e-13
6.50833e-13
5.07515e-13
2.02674e-13
5.66574e-13
-4.00015e-14
5.95014e-13
-3.74864e-14
1.02705e-12
1.36838e-12
-1.80608e-13
7.19558e-13
-2.58208e-13
6.88502e-13
-1.75838e-13
3.01832e-13
1.26104e-14
2.80123e-14
2.65986e-13
-1.58259e-13
5.40962e-13
-3.15429e-13
7.98828e-13
-4.74175e-13
1.08043e-12
-6.49345e-13
1.46586e-12
-8.87424e-13
1.85699e-12
-1.0143e-12
2.24292e-12
-1.11135e-12
2.60476e-12
-1.15709e-12
2.91635e-12
-1.13473e-12
3.15164e-12
-1.03025e-12
3.28469e-12
-8.33835e-13
3.29322e-12
-5.52103e-13
3.16549e-12
-2.05963e-13
2.81172e-12
2.63275e-13
2.31999e-12
7.19766e-13
1.74442e-12
9.93669e-13
1.17193e-12
1.08e-12
6.63865e-13
1.07464e-12
2.9122e-13
9.6766e-13
1.26159e-13
1.19211e-12
1.49454e-12
-1.89488e-13
9.0903e-13
-2.06815e-13
7.05809e-13
-4.36039e-14
1.38601e-13
2.31639e-13
-2.47251e-13
5.68603e-13
-4.95243e-13
9.34574e-13
-6.81421e-13
1.29825e-12
-8.37869e-13
1.63161e-12
-9.82726e-13
1.89676e-12
-1.15259e-12
2.29332e-12
-1.41088e-12
2.68433e-12
-1.50239e-12
3.03009e-12
-1.50286e-12
3.30661e-12
-1.41128e-12
3.49224e-12
-1.21589e-12
3.56817e-12
-9.09779e-13
3.5196e-12
-5.03555e-13
3.34417e-12
-3.05475e-14
2.93949e-12
6.67944e-13
2.42747e-12
1.23177e-12
1.85499e-12
1.56614e-12
1.27243e-12
1.66255e-12
7.76267e-13
1.57079e-12
3.95007e-13
1.34891e-12
1.6146e-13
1.42565e-12
1.656e-12
-2.14618e-13
1.12363e-12
-2.13516e-13
7.04684e-13
-2.03065e-14
-5.46323e-14
2.88807e-13
-5.56389e-13
6.53768e-13
-8.60228e-13
1.05303e-12
-1.08071e-12
1.44848e-12
-1.23334e-12
1.81596e-12
-1.35024e-12
2.12939e-12
-1.46605e-12
2.35713e-12
-1.63864e-12
2.72424e-12
-1.86953e-12
3.0315e-12
-1.81014e-12
3.2677e-12
-1.6475e-12
3.41121e-12
-1.35942e-12
3.45027e-12
-9.48864e-13
3.38076e-12
-4.34055e-13
3.20431e-12
1.45884e-13
2.8283e-12
1.04394e-12
2.34389e-12
1.71616e-12
1.81471e-12
2.0953e-12
1.26128e-12
2.21597e-12
7.86575e-13
2.0455e-12
4.04977e-13
1.7305e-12
1.68342e-13
1.66228e-12
1.82434e-12
-2.3927e-13
1.36288e-12
-2.34443e-13
6.99829e-13
-3.12217e-14
-2.57881e-13
2.90569e-13
-8.78207e-13
6.73962e-13
-1.24365e-12
1.08487e-12
-1.49164e-12
1.49013e-12
-1.63863e-12
1.86528e-12
-1.72541e-12
2.18598e-12
-1.78677e-12
2.41652e-12
-1.86921e-12
2.65748e-12
-2.11051e-12
2.92016e-12
-2.07284e-12
3.11036e-12
-1.83772e-12
3.22286e-12
-1.47195e-12
3.24622e-12
-9.72252e-13
3.18126e-12
-3.69123e-13
3.03281e-12
2.94315e-13
2.73575e-12
1.34098e-12
2.3032e-12
2.14869e-12
1.82997e-12
2.56852e-12
1.32583e-12
2.7201e-12
8.39883e-13
2.53142e-12
4.30521e-13
2.13985e-12
2.04985e-13
1.8878e-12
2.02932e-12
-2.57252e-13
1.6201e-12
-2.4617e-13
6.88716e-13
-2.81792e-14
-4.75902e-13
3.15552e-13
-1.22197e-12
7.28347e-13
-1.65647e-12
1.16902e-12
-1.93234e-12
1.60724e-12
-2.07688e-12
2.01868e-12
-2.13688e-12
2.37616e-12
-2.14429e-12
2.64914e-12
-2.14222e-12
2.79151e-12
-2.25292e-12
3.04904e-12
-2.3304e-12
3.21498e-12
-2.00369e-12
3.3022e-12
-1.5592e-12
3.31991e-12
-9.89986e-13
3.26714e-12
-3.16379e-13
3.1485e-12
4.12929e-13
2.94519e-12
1.54426e-12
2.55766e-12
2.5362e-12
2.08886e-12
3.03731e-12
1.57459e-12
3.23435e-12
9.99991e-13
3.10601e-12
5.13941e-13
2.62589e-12
2.60142e-13
2.14159e-12
2.28946e-12
-2.66189e-13
1.88626e-12
-2.35562e-13
6.58056e-13
1.87465e-14
-7.30246e-13
4.1312e-13
-1.61638e-12
8.91844e-13
-2.13523e-12
1.41081e-12
-2.45134e-12
1.93755e-12
-2.60365e-12
2.44697e-12
-2.64634e-12
2.90428e-12
-2.60163e-12
3.26604e-12
-2.50401e-12
3.46572e-12
-2.45263e-12
3.74337e-12
-2.60808e-12
3.92063e-12
-2.18099e-12
4.00566e-12
-1.64427e-12
4.01009e-12
-9.94444e-13
3.94482e-12
-2.51145e-13
3.81201e-12
5.45708e-13
3.6479e-12
1.70834e-12
3.23125e-12
2.95282e-12
2.61398e-12
3.65456e-12
2.00658e-12
3.84172e-12
1.33957e-12
3.77301e-12
7.17049e-13
3.24839e-12
3.35104e-13
2.52351e-12
2.62456e-12
-2.63021e-13
2.14925e-12
-1.91562e-13
5.86559e-13
1.34559e-13
-1.0564e-12
6.21332e-13
-2.10319e-12
1.2272e-12
-2.74114e-12
1.90825e-12
-3.13243e-12
2.621e-12
-3.31644e-12
3.319e-12
-3.34438e-12
3.9739e-12
-3.25657e-12
4.53207e-12
-3.06221e-12
4.91793e-12
-2.83853e-12
5.19941e-12
-2.8896e-12
5.47839e-12
-2.46e-12
5.61227e-12
-1.77819e-12
5.61688e-12
-9.99095e-13
5.51053e-12
-1.44827e-13
5.30283e-12
7.53376e-13
5.08386e-12
1.92728e-12
4.56141e-12
3.47525e-12
3.73841e-12
4.47753e-12
2.84117e-12
4.73894e-12
1.93132e-12
4.68283e-12
1.03359e-12
4.1461e-12
4.12721e-13
3.14436e-12
3.03727e-12
-2.46517e-13
2.39574e-12
-1.07325e-13
4.47328e-13
3.35542e-13
-1.49931e-12
9.69107e-13
-2.73679e-12
1.79607e-12
-3.56814e-12
2.72051e-12
-4.05692e-12
3.71216e-12
-4.30813e-12
4.74243e-12
-4.37469e-12
5.72576e-12
-4.23993e-12
6.60074e-12
-3.93724e-12
7.30808e-12
-3.5459e-12
7.68011e-12
-3.26167e-12
8.16135e-12
-2.94127e-12
8.39609e-12
-2.01297e-12
8.4086e-12
-1.01164e-12
8.22749e-12
3.62368e-14
7.88669e-12
1.09415e-12
7.48631e-12
2.32762e-12
6.73132e-12
4.2302e-12
5.59114e-12
5.61767e-12
4.0973e-12
6.23275e-12
2.80044e-12
5.97966e-12
1.46088e-12
5.48563e-12
4.7809e-13
4.12712e-12
3.51536e-12
-2.09517e-13
2.60522e-12
3.92401e-14
1.98533e-13
6.55898e-13
-2.11601e-12
1.56722e-12
-3.64815e-12
2.6861e-12
-4.68705e-12
3.95018e-12
-5.32104e-12
5.33753e-12
-5.69552e-12
6.79356e-12
-5.83075e-12
8.26084e-12
-5.70724e-12
9.6219e-12
-5.29834e-12
1.07426e-11
-4.66665e-12
1.15052e-11
-4.02436e-12
1.22415e-11
-3.67757e-12
1.26791e-11
-2.45064e-12
1.27824e-11
-1.11494e-12
1.25457e-11
2.72885e-13
1.19974e-11
1.64242e-12
1.11321e-11
3.19292e-12
9.92609e-12
5.43612e-12
8.33926e-12
7.20448e-12
6.29406e-12
8.27791e-12
4.0488e-12
8.22488e-12
2.07008e-12
7.46433e-12
6.09005e-13
5.58815e-12
4.12435e-12
-1.43893e-13
2.74908e-12
2.71526e-13
-2.16917e-13
1.14297e-12
-2.98749e-12
2.41335e-12
-4.91856e-12
3.94123e-12
-6.21497e-12
5.69354e-12
-7.07337e-12
7.61142e-12
-7.61343e-12
9.63655e-12
-7.85592e-12
1.16944e-11
-7.76515e-12
1.36999e-11
-7.30384e-12
1.54974e-11
-6.46416e-12
1.68913e-11
-5.41836e-12
1.7859e-11
-4.64525e-12
1.87471e-11
-3.33884e-12
1.90998e-11
-1.46766e-12
1.89016e-11
4.71071e-13
1.81658e-11
2.37811e-12
1.66103e-11
4.74835e-12
1.4582e-11
7.46438e-12
1.21732e-11
9.61329e-12
9.33749e-12
1.11136e-11
6.04137e-12
1.1521e-11
3.08956e-12
1.04161e-11
9.48413e-13
7.72925e-12
5.07275e-12
-4.44035e-14
2.79347e-12
6.08896e-13
-8.70236e-13
1.8196e-12
-4.19821e-12
3.54071e-12
-6.63969e-12
5.6209e-12
-8.29518e-12
8.01303e-12
-9.46552e-12
1.06503e-11
-1.02507e-11
1.34409e-11
-1.06466e-11
1.62848e-11
-1.06091e-11
1.90714e-11
-1.00905e-11
2.16884e-11
-9.08121e-12
2.38958e-11
-7.62578e-12
2.54033e-11
-6.15282e-12
2.68783e-11
-4.81389e-12
2.76517e-11
-2.24109e-12
2.7636e-11
4.86698e-13
2.67671e-11
3.24699e-12
2.44844e-11
7.03099e-12
2.14499e-11
1.04988e-11
1.78143e-11
1.32488e-11
1.37328e-11
1.5195e-11
9.23685e-12
1.60169e-11
4.65115e-12
1.50017e-11
1.43539e-12
1.0945e-11
6.50813e-12
8.7661e-14
2.7058e-12
1.01997e-12
-1.80254e-12
2.74162e-12
-5.91985e-12
5.01922e-12
-8.91728e-12
7.82817e-12
-1.11041e-11
1.10501e-11
-1.26874e-11
1.4589e-11
-1.37896e-11
1.8341e-11
-1.43986e-11
2.21802e-11
-1.44483e-11
2.59724e-11
-1.38827e-11
2.9567e-11
-1.26758e-11
3.2786e-11
-1.08448e-11
3.51754e-11
-8.54222e-12
3.73054e-11
-6.94397e-12
3.86922e-11
-3.62785e-12
3.90972e-11
8.15828e-14
3.81632e-11
4.18096e-12
3.53349e-11
9.85922e-12
3.12428e-11
1.45909e-11
2.60488e-11
1.84428e-11
2.00933e-11
2.11505e-11
1.3755e-11
2.23551e-11
7.24509e-12
2.15115e-11
2.22372e-12
1.59662e-11
8.73182e-12
2.7519e-13
2.43064e-12
1.61583e-12
-3.14313e-12
3.87672e-12
-8.18069e-12
6.92614e-12
-1.19667e-11
1.0619e-11
-1.4797e-11
1.48496e-11
-1.69179e-11
1.95106e-11
-1.84506e-11
2.44658e-11
-1.93537e-11
2.95579e-11
-1.95405e-11
3.46196e-11
-1.89444e-11
3.94756e-11
-1.75318e-11
4.39413e-11
-1.53106e-11
4.77428e-11
-1.23437e-11
5.02103e-11
-9.41149e-12
5.25918e-11
-6.00947e-12
5.36712e-11
-9.97824e-13
5.28452e-11
5.00689e-12
4.98658e-11
1.28386e-11
4.48071e-11
1.96495e-11
3.78724e-11
2.53774e-11
2.94777e-11
2.95452e-11
2.03428e-11
3.14899e-11
1.11842e-11
3.067e-11
3.511e-12
2.36394e-11
1.22428e-11
5.04527e-13
1.92619e-12
2.33422e-12
-4.97272e-12
5.30074e-12
-1.11471e-11
9.25422e-12
-1.592e-11
1.40156e-11
-1.95582e-11
1.94713e-11
-2.23736e-11
2.54888e-11
-2.4468e-11
3.19084e-11
-2.57733e-11
3.85465e-11
-2.61785e-11
4.51977e-11
-2.55956e-11
5.16426e-11
-2.39767e-11
5.76376e-11
-2.13056e-11
6.28995e-11
-1.76056e-11
6.6591e-11
-1.31031e-11
6.9825e-11
-9.24351e-12
7.14733e-11
-2.64611e-12
7.12223e-11
5.2578e-12
6.79385e-11
1.61223e-11
6.22947e-11
2.52932e-11
5.39419e-11
3.37301e-11
4.29882e-11
4.04988e-11
3.02294e-11
4.42486e-11
1.70796e-11
4.38197e-11
5.80539e-12
3.49135e-11
1.80481e-11
7.88298e-13
1.13803e-12
3.19039e-12
-7.37463e-12
7.00374e-12
-1.49603e-11
1.20023e-11
-2.09184e-11
1.8024e-11
-2.55798e-11
2.49337e-11
-2.92831e-11
3.25661e-11
-3.21004e-11
4.0735e-11
-3.39421e-11
4.92365e-11
-3.468e-11
5.78435e-11
-3.42025e-11
6.6294e-11
-3.24271e-11
7.42848e-11
-2.92963e-11
8.14587e-11
-2.47795e-11
8.72254e-11
-1.88697e-11
9.10165e-11
-1.30346e-11
9.37825e-11
-5.41211e-12
9.44424e-11
4.59784e-12
9.14336e-11
1.91311e-11
8.5193e-11
3.15338e-11
7.51243e-11
4.37987e-11
6.11263e-11
5.44968e-11
4.39354e-11
6.14394e-11
2.51748e-11
6.25802e-11
8.96522e-12
5.1123e-11
2.70133e-11
1.10303e-12
3.52059e-14
4.171e-12
-1.04423e-11
8.93604e-12
-1.97251e-11
1.51456e-11
-2.71277e-11
2.26357e-11
-3.30697e-11
3.12259e-11
-3.78731e-11
4.07337e-11
-4.1608e-11
5.09562e-11
-4.41644e-11
6.16671e-11
-4.53908e-11
7.26152e-11
-4.51506e-11
8.35145e-11
-4.33264e-11
9.40288e-11
-3.98105e-11
1.03754e-10
-3.45049e-11
1.12241e-10
-2.73565e-11
1.1772e-10
-1.8514e-11
1.22191e-10
-9.88219e-12
1.23858e-10
2.93071e-12
1.22256e-10
2.07325e-11
1.15938e-10
3.78524e-11
1.04569e-10
5.51674e-11
8.75028e-11
7.15629e-11
6.46644e-11
8.42777e-11
3.74147e-11
8.98298e-11
1.25085e-11
7.60291e-11
3.95219e-11
1.4441e-12
-1.40862e-12
5.23901e-12
-1.42369e-11
1.10625e-11
-2.55482e-11
1.86451e-11
-3.47101e-11
2.77685e-11
-4.21927e-11
3.82492e-11
-4.83536e-11
4.98956e-11
-5.32542e-11
6.24979e-11
-5.67666e-11
7.58223e-11
-5.87151e-11
8.96035e-11
-5.89316e-11
1.03535e-10
-5.72581e-11
1.17262e-10
-5.35369e-11
1.30362e-10
-4.76049e-11
1.42317e-10
-3.93116e-11
1.52284e-10
-2.84806e-11
1.58134e-10
-1.57323e-11
1.62391e-10
-1.3267e-12
1.63265e-10
1.98582e-11
1.57975e-10
4.31427e-11
1.45705e-10
6.74378e-11
1.24586e-10
9.26818e-11
9.34365e-11
1.15427e-10
5.29916e-11
1.30275e-10
1.18026e-11
1.17218e-10
5.13244e-11
1.79659e-12
-3.2049e-12
6.37335e-12
-1.88133e-11
1.33547e-11
-3.25292e-11
2.24229e-11
-4.3778e-11
3.33247e-11
-5.30942e-11
4.58606e-11
-6.08894e-11
5.98327e-11
-6.7226e-11
7.50303e-11
-7.1964e-11
9.12213e-11
-7.4906e-11
1.0814e-10
-7.58499e-11
1.2547e-10
-7.45886e-11
1.42832e-10
-7.08984e-11
1.59763e-10
-6.4536e-11
1.75691e-10
-5.52398e-11
1.89974e-10
-4.27636e-11
2.01062e-10
-2.68197e-11
2.07867e-10
-8.13237e-12
2.13216e-10
1.45096e-11
2.11601e-10
4.47577e-11
2.01252e-10
7.77872e-11
1.79448e-10
1.14485e-10
1.43025e-10
1.5185e-10
9.24142e-11
1.80885e-10
2.9373e-11
1.80259e-10
8.06973e-11
1.62018e-12
-4.82474e-12
5.54672e-12
-2.27395e-11
1.14862e-11
-3.84684e-11
1.92635e-11
-5.15549e-11
2.87501e-11
-6.25806e-11
3.98583e-11
-7.19973e-11
5.25423e-11
-7.99098e-11
6.67866e-11
-8.62082e-11
8.25915e-11
-9.07107e-11
9.99595e-11
-9.32178e-11
1.18887e-10
-9.3516e-11
1.39358e-10
-9.13694e-11
1.6134e-10
-8.65178e-11
1.84784e-10
-7.86834e-11
2.09609e-10
-6.75893e-11
2.3577e-10
-5.29804e-11
2.62345e-10
-3.47071e-11
2.88013e-10
-1.11584e-11
3.16528e-10
1.62422e-11
3.45259e-10
4.90561e-11
3.72881e-10
8.68638e-11
3.97396e-10
1.27335e-10
4.14001e-10
1.6428e-10
4.10642e-10
1.83618e-10
1.57239e-10
3.34101e-10
1.74303e-12
-6.56745e-12
5.9748e-12
-2.69709e-11
1.2392e-11
-4.48852e-11
2.07943e-11
-5.99569e-11
3.10362e-11
-7.28222e-11
4.30263e-11
-8.39871e-11
5.67241e-11
-9.36074e-11
7.21268e-11
-1.01611e-10
8.92537e-11
-1.07838e-10
1.08135e-10
-1.12099e-10
1.28805e-10
-1.14186e-10
1.51298e-10
-1.13862e-10
1.75644e-10
-1.10864e-10
2.01869e-10
-1.04908e-10
2.29983e-10
-9.57032e-11
2.59967e-10
-8.29647e-11
2.91621e-10
-6.6361e-11
3.25773e-10
-4.53099e-11
3.61866e-10
-1.98512e-11
4.00774e-10
1.01478e-11
4.42348e-10
4.529e-11
4.85031e-10
8.46528e-11
5.24758e-10
1.24553e-10
5.49637e-10
1.58739e-10
1.85292e-10
5.21584e-10
1.83791e-12
-8.40504e-12
6.33022e-12
-3.14628e-11
1.31561e-11
-5.17108e-11
2.20977e-11
-6.88982e-11
3.2996e-11
-8.37203e-11
4.57536e-11
-9.67446e-11
6.03292e-11
-1.08183e-10
7.67231e-11
-1.18005e-10
9.49627e-11
-1.26077e-10
1.15092e-10
-1.32228e-10
1.37164e-10
-1.36258e-10
1.61239e-10
-1.37938e-10
1.87382e-10
-1.37007e-10
2.15654e-10
-1.33181e-10
2.46113e-10
-1.26162e-10
2.78798e-10
-1.1565e-10
3.13764e-10
-1.01327e-10
3.51298e-10
-8.28445e-11
3.9135e-10
-5.99032e-11
4.33664e-10
-3.21653e-11
4.77912e-10
1.04122e-12
5.21912e-10
4.06527e-11
5.60287e-10
8.61782e-11
5.8034e-10
1.38686e-10
2.04417e-10
5.61216e-10
1.91e-12
-1.03147e-11
6.61176e-12
-3.61643e-11
1.3772e-11
-5.88707e-11
2.31599e-11
-7.82858e-11
3.46061e-11
-9.51663e-11
4.80047e-11
-1.10143e-10
6.33077e-11
-1.23486e-10
8.05107e-11
-1.35208e-10
9.96384e-11
-1.45205e-10
1.20734e-10
-1.53324e-10
1.43853e-10
-1.59377e-10
1.69058e-10
-1.63143e-10
1.96414e-10
-1.64363e-10
2.25981e-10
-1.62748e-10
2.57805e-10
-1.57986e-10
2.91899e-10
-1.49744e-10
3.28235e-10
-1.37663e-10
3.66728e-10
-1.21338e-10
4.07093e-10
-1.00268e-10
4.48666e-10
-7.37375e-11
4.90233e-10
-4.05265e-11
5.29529e-10
1.35662e-12
5.61198e-10
5.45097e-11
5.77097e-10
1.22786e-10
2.15545e-10
5.65969e-10
1.96335e-12
-1.22778e-11
6.82735e-12
-4.10279e-11
1.4251e-11
-6.62941e-11
2.39958e-11
-8.80303e-11
3.5884e-11
-1.07054e-10
4.97998e-11
-1.24059e-10
6.56847e-11
-1.39371e-10
8.35234e-11
-1.53046e-10
1.0333e-10
-1.65011e-10
1.25136e-10
-1.7513e-10
1.48985e-10
-1.83226e-10
1.74925e-10
-1.89082e-10
2.02999e-10
-1.92437e-10
2.33241e-10
-1.9299e-10
2.6565e-10
-1.90395e-10
3.00173e-10
-1.84266e-10
3.36664e-10
-1.74153e-10
3.7483e-10
-1.59505e-10
4.14148e-10
-1.39586e-10
4.53706e-10
-1.13296e-10
4.921e-10
-7.89208e-11
5.27259e-10
-3.38025e-11
5.55594e-10
2.61753e-11
5.72991e-10
1.05389e-10
2.12972e-10
5.75564e-10
1.99832e-12
-1.42758e-11
6.97839e-12
-4.60077e-11
1.45973e-11
-7.39127e-11
2.46132e-11
-9.8046e-11
3.6842e-11
-1.19283e-10
5.11583e-11
-1.38375e-10
6.74908e-11
-1.55703e-10
8.58096e-11
-1.71365e-10
1.06113e-10
-1.85314e-10
1.28416e-10
-1.97433e-10
1.52741e-10
-2.07552e-10
1.79113e-10
-2.15454e-10
2.07546e-10
-2.20871e-10
2.38037e-10
-2.2348e-10
2.7054e-10
-2.22899e-10
3.04944e-10
-2.18671e-10
3.41035e-10
-2.10244e-10
3.78442e-10
-1.96912e-10
4.16582e-10
-1.77726e-10
4.54597e-10
-1.51311e-10
4.91328e-10
-1.15652e-10
5.25346e-10
-6.78204e-11
5.55274e-10
-3.75276e-12
5.7942e-10
8.12435e-11
1.93599e-10
5.98792e-10
2.01547e-12
-1.6291e-11
7.06751e-12
-5.10594e-11
1.48173e-11
-8.16622e-11
2.50239e-11
-1.08252e-10
3.74998e-11
-1.31759e-10
5.21103e-11
-1.52985e-10
6.87713e-11
-1.72364e-10
8.74373e-11
-1.90031e-10
1.08089e-10
-2.05966e-10
1.30722e-10
-2.20066e-10
1.55337e-10
-2.32167e-10
1.81934e-10
-2.42051e-10
2.10501e-10
-2.49439e-10
2.41005e-10
-2.53984e-10
2.73371e-10
-2.55265e-10
3.07465e-10
-2.52765e-10
3.43063e-10
-2.45842e-10
3.79825e-10
-2.33675e-10
4.17273e-10
-2.15173e-10
4.54798e-10
-1.88836e-10
4.9173e-10
-1.52584e-10
5.27502e-10
-1.03593e-10
5.62007e-10
-3.82575e-11
5.95834e-10
4.74166e-11
1.57592e-10
6.31841e-10
2.01633e-12
-1.8307e-11
7.0998e-12
-5.61426e-11
1.49217e-11
-8.94837e-11
2.52463e-11
-1.18577e-10
3.7885e-11
-1.44397e-10
5.26963e-11
-1.67796e-10
6.9584e-11
-1.89252e-10
8.84881e-11
-2.08935e-10
1.09372e-10
-2.2685e-10
1.32214e-10
-2.42907e-10
1.56995e-10
-2.56948e-10
1.83695e-10
-2.68751e-10
2.12283e-10
-2.78028e-10
2.42711e-10
-2.84412e-10
2.74898e-10
-2.87452e-10
3.08719e-10
-2.86586e-10
3.43995e-10
-2.81118e-10
3.80484e-10
-2.70164e-10
4.17897e-10
-2.52586e-10
4.55949e-10
-2.26888e-10
4.94482e-10
-1.91117e-10
5.33673e-10
-1.42783e-10
5.74347e-10
-7.8932e-11
6.18282e-10
3.48141e-12
1.0695e-10
6.68924e-10
2.00294e-12
-2.03097e-11
7.08221e-12
-6.12215e-11
1.49245e-11
-9.73257e-11
2.53032e-11
-1.28955e-10
3.80318e-11
-1.57125e-10
5.2964e-11
-1.82729e-10
6.99942e-11
-2.06282e-10
8.90498e-11
-2.27991e-10
1.1008e-10
-2.47881e-10
1.33048e-10
-2.65875e-10
1.57922e-10
-2.81821e-10
1.84668e-10
-2.95497e-10
2.13247e-10
-3.06607e-10
2.4361e-10
-3.14775e-10
2.7569e-10
-3.19531e-10
3.09399e-10
-3.20295e-10
3.44633e-10
-3.16352e-10
3.8128e-10
-3.06812e-10
4.19261e-10
-2.90567e-10
4.58602e-10
-2.6623e-10
4.99571e-10
-2.32086e-10
5.42875e-10
-1.86088e-10
5.89915e-10
-1.25972e-10
6.42995e-10
-4.95979e-11
4.44046e-11
7.0554e-10
1.97763e-12
-2.2287e-11
7.02251e-12
-6.62661e-11
1.48413e-11
-1.05144e-10
2.52199e-11
-1.39334e-10
3.79767e-11
-1.69882e-10
5.29638e-11
-1.97715e-10
7.00687e-11
-2.23387e-10
8.92094e-11
-2.47131e-10
1.10325e-10
-2.68997e-10
1.33368e-10
-2.88918e-10
1.58298e-10
-3.06751e-10
1.85077e-10
-3.22276e-10
2.13668e-10
-3.35198e-10
2.44032e-10
-3.45139e-10
2.7613e-10
-3.5163e-10
3.09928e-10
-3.54093e-10
3.45407e-10
-3.5183e-10
3.8259e-10
-3.43995e-10
4.21588e-10
-3.29564e-10
4.62679e-10
-3.07321e-10
5.06436e-10
-2.75842e-10
5.53886e-10
-2.33538e-10
6.06697e-10
-1.78783e-10
6.67306e-10
-1.10207e-10
-2.719e-11
7.38901e-10
1.94268e-12
-2.42294e-11
6.92876e-12
-7.12519e-11
1.46881e-11
-1.12903e-10
2.50218e-11
-1.49667e-10
3.77563e-11
-1.82616e-10
5.27445e-11
-2.12704e-10
6.98705e-11
-2.40513e-10
8.90461e-11
-2.66307e-10
1.10204e-10
-2.90155e-10
1.33291e-10
-3.12006e-10
1.58264e-10
-3.31725e-10
1.85088e-10
-3.491e-10
2.13734e-10
-3.63844e-10
2.44184e-10
-3.75589e-10
2.76433e-10
-3.83879e-10
3.10505e-10
-3.88165e-10
3.46464e-10
-3.8779e-10
3.84453e-10
-3.81983e-10
4.24735e-10
-3.69846e-10
4.67769e-10
-3.50356e-10
5.14313e-10
-3.22386e-10
5.65544e-10
-2.84769e-10
6.23183e-10
-2.36422e-10
6.89563e-10
-1.76586e-10
-1.05171e-10
7.67544e-10
1.90056e-12
-2.61297e-11
6.80859e-12
-7.61596e-11
1.44797e-11
-1.20574e-10
2.47328e-11
-1.5992e-10
3.74042e-11
-1.95288e-10
5.23505e-11
-2.2765e-10
6.94551e-11
-2.57617e-10
8.86271e-11
-2.85479e-10
1.09796e-10
-3.11324e-10
1.32909e-10
-3.35118e-10
1.57923e-10
-3.56739e-10
1.8481e-10
-3.75987e-10
2.13556e-10
-3.9259e-10
2.44166e-10
-4.06199e-10
2.76673e-10
-4.16387e-10
3.11154e-10
-4.22646e-10
3.47748e-10
-4.24384e-10
3.86688e-10
-4.20923e-10
4.28348e-10
-4.11506e-10
4.733e-10
-3.95308e-10
5.22392e-10
-3.71478e-10
5.76832e-10
-3.39209e-10
6.3826e-10
-2.97851e-10
7.08773e-10
-2.47099e-10
-1.87238e-10
7.9084e-10
1.85315e-12
-2.79825e-11
6.6688e-12
-8.09749e-11
1.42297e-11
-1.28135e-10
2.43737e-11
-1.70064e-10
3.69493e-11
-2.07863e-10
5.18189e-11
-2.42519e-10
6.88676e-11
-2.74666e-10
8.80049e-11
-3.04616e-10
1.09161e-10
-3.3248e-10
1.32283e-10
-3.5824e-10
1.57335e-10
-3.81791e-10
1.84298e-10
-4.02951e-10
2.13175e-10
-4.21467e-10
2.43994e-10
-4.37018e-10
2.76823e-10
-4.49216e-10
3.11784e-10
-4.57607e-10
3.49073e-10
-4.61673e-10
3.88989e-10
-4.60839e-10
4.31973e-10
-4.5449e-10
4.78653e-10
-4.41989e-10
5.299e-10
-4.22726e-10
5.86876e-10
-3.96185e-10
6.51071e-10
-3.62046e-10
7.24298e-10
-3.20326e-10
-2.71549e-10
8.08609e-10
1.80213e-12
-2.97844e-11
6.51499e-12
-8.56875e-11
1.3949e-11
-1.35569e-10
2.39618e-11
-1.80076e-10
3.64151e-11
-2.20316e-10
5.1179e-11
-2.57283e-10
6.81426e-11
-2.91629e-10
8.72172e-11
-3.23691e-10
1.08336e-10
-3.53598e-10
1.3145e-10
-3.81354e-10
1.5653e-10
-4.06871e-10
1.83568e-10
-4.29989e-10
2.12582e-10
-4.50481e-10
2.43623e-10
-4.68059e-10
2.76787e-10
-4.82381e-10
3.1223e-10
-4.9305e-10
3.50187e-10
-4.9963e-10
3.90998e-10
-5.0165e-10
4.35134e-10
-4.98626e-10
4.83239e-10
-4.90093e-10
5.36154e-10
-4.75641e-10
5.94953e-10
-4.54984e-10
6.60949e-10
-4.28042e-10
7.35671e-10
-3.95048e-10
-3.56664e-10
8.20786e-10
1.74878e-12
-3.15329e-11
6.35168e-12
-9.029e-11
1.36463e-11
-1.42863e-10
2.35104e-11
-1.8994e-10
3.58195e-11
-2.32625e-10
5.04525e-11
-2.71916e-10
6.73037e-11
-3.08481e-10
8.62884e-11
-3.42676e-10
1.07343e-10
-3.74653e-10
1.30425e-10
-4.04436e-10
1.55511e-10
-4.31958e-10
1.82604e-10
-4.57083e-10
2.11736e-10
-4.79613e-10
2.42974e-10
-4.99298e-10
2.76435e-10
-5.15842e-10
3.12299e-10
-5.28914e-10
3.50822e-10
-5.38153e-10
3.92361e-10
-5.43188e-10
4.37392e-10
-5.43658e-10
4.86539e-10
-5.39239e-10
5.40586e-10
-5.29688e-10
6.00495e-10
-5.14893e-10
6.67397e-10
-4.94944e-10
7.4256e-10
-4.7021e-10
-4.41422e-10
8.27317e-10
1.69428e-12
-3.32268e-11
6.18226e-12
-9.47777e-11
1.33282e-11
-1.50009e-10
2.30292e-11
-1.99641e-10
3.5175e-11
-2.44771e-10
4.96537e-11
-2.86395e-10
6.63658e-11
-3.25193e-10
8.52313e-11
-3.61541e-10
1.06191e-10
-3.95613e-10
1.29207e-10
-4.27452e-10
1.54264e-10
-4.57015e-10
1.81372e-10
-4.84191e-10
2.10574e-10
-5.08814e-10
2.41949e-10
-5.30673e-10
2.75626e-10
-5.4952e-10
3.11797e-10
-5.65085e-10
3.50725e-10
-5.77081e-10
3.92765e-10
-5.85228e-10
4.38377e-10
-5.8927e-10
4.88142e-10
-5.89004e-10
5.42769e-10
-5.84315e-10
6.031e-10
-5.75224e-10
6.7009e-10
-5.61934e-10
7.44776e-10
-5.44896e-10
-5.24857e-10
8.28211e-10
1.6391e-12
-3.48656e-11
6.00913e-12
-9.91474e-11
1.2999e-11
-1.56998e-10
2.25247e-11
-2.09167e-10
3.44895e-11
-2.56735e-10
4.87911e-11
-3.00696e-10
6.53365e-11
-3.41738e-10
8.40506e-11
-3.80255e-10
1.04878e-10
-4.16441e-10
1.27787e-10
-4.5036e-10
1.52765e-10
-4.81994e-10
1.7983e-10
-5.11256e-10
2.0903e-10
-5.38014e-10
2.40452e-10
-5.62094e-10
2.74229e-10
-5.83298e-10
3.10553e-10
-6.01409e-10
3.49684e-10
-6.16211e-10
3.91959e-10
-6.27503e-10
4.37806e-10
-6.35118e-10
4.87751e-10
-6.38949e-10
5.4242e-10
-6.38983e-10
6.02529e-10
-6.35333e-10
6.68874e-10
-6.28279e-10
7.42288e-10
-6.1831e-10
-6.06161e-10
8.23592e-10
1.58395e-12
-3.64493e-11
5.83377e-12
-1.03397e-10
1.26616e-11
-1.63826e-10
2.20007e-11
-2.18506e-10
3.37675e-11
-2.68502e-10
4.78689e-11
-3.14797e-10
6.42184e-11
-3.58088e-10
8.27452e-11
-3.98782e-10
1.03398e-10
-4.37094e-10
1.26148e-10
-4.7311e-10
1.50987e-10
-5.06833e-10
1.77935e-10
-5.38205e-10
2.07043e-10
-5.67122e-10
2.38398e-10
-5.9345e-10
2.72133e-10
-6.17033e-10
3.08431e-10
-6.37707e-10
3.47537e-10
-6.55317e-10
3.89761e-10
-6.69728e-10
4.35491e-10
-6.80847e-10
4.85187e-10
-6.88646e-10
5.39387e-10
-6.93183e-10
5.98692e-10
-6.94638e-10
6.63748e-10
-6.93335e-10
7.35213e-10
-6.89775e-10
-6.84662e-10
8.13713e-10
1.52879e-12
-3.79778e-11
5.6569e-12
-1.07525e-10
1.23172e-11
-1.70486e-10
2.14589e-11
-2.27647e-10
3.30108e-11
-2.80054e-10
4.68883e-11
-3.28675e-10
6.30107e-11
-3.7421e-10
8.13114e-11
-4.17083e-10
1.01742e-10
-4.57525e-10
1.24275e-10
-4.95643e-10
1.48905e-10
-5.31463e-10
1.75651e-10
-5.64951e-10
2.04563e-10
-5.96034e-10
2.35724e-10
-6.24611e-10
2.69259e-10
-6.50567e-10
3.05337e-10
-6.73785e-10
3.4418e-10
-6.9416e-10
3.86066e-10
-7.11614e-10
4.31333e-10
-7.26114e-10
4.80375e-10
-7.37688e-10
5.33643e-10
-7.46451e-10
5.91626e-10
-7.52622e-10
6.54839e-10
-7.56548e-10
7.23789e-10
-7.58725e-10
-7.59811e-10
7.98938e-10
1.47397e-12
-3.94515e-11
5.47872e-12
-1.11529e-10
1.19662e-11
-1.76973e-10
2.08998e-11
-2.3658e-10
3.22195e-11
-2.91373e-10
4.58485e-11
-3.42304e-10
6.17112e-11
-3.90073e-10
7.97444e-11
-4.35116e-10
9.99015e-11
-4.77682e-10
1.22155e-10
-5.17897e-10
1.46499e-10
-5.55807e-10
1.7295e-10
-5.91402e-10
2.01554e-10
-6.24638e-10
2.32385e-10
-6.55443e-10
2.65556e-10
-6.83738e-10
3.01217e-10
-7.09446e-10
3.39562e-10
-7.32506e-10
3.80832e-10
-7.52884e-10
4.25313e-10
-7.70594e-10
4.73332e-10
-7.85708e-10
5.25256e-10
-7.98375e-10
5.81475e-10
-8.0884e-10
6.42382e-10
-8.17455e-10
7.08355e-10
-8.24698e-10
-8.31176e-10
7.7972e-10
1.41927e-12
-4.08704e-11
5.29914e-12
-1.15409e-10
1.16084e-11
-1.83282e-10
2.03232e-11
-2.45295e-10
3.13931e-11
-3.02443e-10
4.47484e-11
-3.55659e-10
6.03178e-11
-4.05642e-10
7.80404e-11
-4.52839e-10
9.78702e-11
-4.97512e-10
1.19779e-10
-5.39806e-10
1.43758e-10
-5.79785e-10
1.69819e-10
-6.17464e-10
1.97999e-10
-6.52818e-10
2.28364e-10
-6.85808e-10
2.61008e-10
-7.16382e-10
2.9606e-10
-7.44498e-10
3.33684e-10
-7.7013e-10
3.7408e-10
-7.9328e-10
4.17481e-10
-8.13995e-10
4.64152e-10
-8.32379e-10
5.1438e-10
-8.48603e-10
5.68462e-10
-8.62922e-10
6.26688e-10
-8.75682e-10
6.89323e-10
-8.87333e-10
-8.98429e-10
7.56576e-10
1.36469e-12
-4.22348e-11
5.11792e-12
-1.19162e-10
1.12434e-11
-1.89407e-10
1.97285e-11
-2.5378e-10
3.05309e-11
-3.13246e-10
4.35871e-11
-3.68715e-10
5.88292e-11
-4.20884e-10
7.61977e-11
-4.70208e-10
9.56463e-11
-5.16961e-10
1.17144e-10
-5.61304e-10
1.40678e-10
-6.0332e-10
1.66254e-10
-6.4304e-10
1.93899e-10
-6.80464e-10
2.23664e-10
-7.15573e-10
2.55627e-10
-7.48345e-10
2.8989e-10
-7.78762e-10
3.26587e-10
-8.06827e-10
3.65877e-10
-8.32569e-10
4.07942e-10
-8.56061e-10
4.52987e-10
-8.77424e-10
5.01226e-10
-8.96842e-10
5.52872e-10
-9.14568e-10
6.08127e-10
-9.30936e-10
6.67155e-10
-9.4636e-10
-9.61341e-10
7.30067e-10
1.31012e-12
-4.35447e-11
4.93488e-12
-1.22786e-10
1.08711e-11
-1.95343e-10
1.91153e-11
-2.62024e-10
2.96327e-11
-3.23763e-10
4.23646e-11
-3.81447e-10
5.7246e-11
-4.35766e-10
7.42177e-11
-4.8718e-10
9.3232e-11
-5.35976e-10
1.14255e-10
-5.82327e-10
1.37267e-10
-6.26332e-10
1.62266e-10
-6.68039e-10
1.89269e-10
-7.07466e-10
2.1831e-10
-7.44615e-10
2.49448e-10
-7.79483e-10
2.82761e-10
-8.12075e-10
3.18349e-10
-8.42415e-10
3.56332e-10
-8.70552e-10
3.96845e-10
-8.96574e-10
4.40034e-10
-9.20614e-10
4.8605e-10
-9.42857e-10
5.35033e-10
-9.63551e-10
5.87102e-10
-9.83005e-10
6.4234e-10
-1.0016e-09
-1.01977e-09
7.00773e-10
1.25556e-12
-4.47999e-11
4.74985e-12
-1.2628e-10
1.0491e-11
-2.01084e-10
1.84837e-11
-2.70016e-10
2.8699e-11
-3.33978e-10
4.10825e-11
-3.93831e-10
5.55709e-11
-4.50254e-10
7.2105e-11
-5.03714e-10
9.06346e-11
-5.54505e-10
1.11121e-10
-6.02814e-10
1.33539e-10
-6.4875e-10
1.57878e-10
-6.92377e-10
1.84139e-10
-7.33728e-10
2.12345e-10
-7.72821e-10
2.42531e-10
-8.09669e-10
2.74751e-10
-8.44295e-10
3.09074e-10
-8.76738e-10
3.45582e-10
-9.0706e-10
3.84366e-10
-9.35358e-10
4.25521e-10
-9.61769e-10
4.69138e-10
-9.86474e-10
5.15292e-10
-1.00971e-09
5.64036e-10
-1.03175e-09
6.1538e-10
-1.05294e-09
-1.07367e-09
6.69279e-10
1.20093e-12
-4.60006e-11
4.56279e-12
-1.29642e-10
1.01035e-11
-2.06624e-10
1.78343e-11
-2.77747e-10
2.77314e-11
-3.43875e-10
3.97436e-11
-4.05843e-10
5.3809e-11
-4.6432e-10
6.98675e-11
-5.19772e-10
8.78659e-11
-5.72504e-10
1.07761e-10
-6.22709e-10
1.29519e-10
-6.70509e-10
1.5312e-10
-7.15978e-10
1.78554e-10
-7.59162e-10
2.05825e-10
-8.00092e-10
2.3495e-10
-8.38794e-10
2.65957e-10
-8.75303e-10
2.98887e-10
-9.09668e-10
3.33786e-10
-9.41959e-10
3.70705e-10
-9.72277e-10
4.09692e-10
-1.00076e-09
4.50787e-10
-1.02757e-09
4.94011e-10
-1.05293e-09
5.39355e-10
-1.07709e-09
5.86771e-10
-1.10036e-09
-1.12306e-09
6.36156e-10
1.14628e-12
-4.71466e-11
4.37381e-12
-1.32869e-10
9.709e-12
-2.11959e-10
1.71684e-11
-2.85206e-10
2.67326e-11
-3.53439e-10
3.83529e-11
-4.17463e-10
5.1968e-11
-4.77935e-10
6.75165e-11
-5.35321e-10
8.4942e-11
-5.8993e-10
1.04195e-10
-6.41963e-10
1.25236e-10
-6.9155e-10
1.48033e-10
-7.38775e-10
1.72564e-10
-7.83694e-10
1.98818e-10
-8.26346e-10
2.26791e-10
-8.66768e-10
2.5649e-10
-9.05002e-10
2.87926e-10
-9.41104e-10
3.21114e-10
-9.75148e-10
3.5607e-10
-1.00723e-09
3.928e-10
-1.03749e-09
4.313e-10
-1.06607e-09
4.71544e-10
-1.09317e-09
5.13474e-10
-1.11902e-09
5.56991e-10
-1.14388e-09
-1.16801e-09
6.01946e-10
1.09161e-12
-4.82379e-11
4.18324e-12
-1.3596e-10
9.30842e-12
-2.17084e-10
1.64882e-11
-2.92386e-10
2.57064e-11
-3.62657e-10
3.69165e-11
-4.28673e-10
5.00575e-11
-4.91076e-10
6.50663e-11
-5.5033e-10
8.18828e-11
-6.06746e-10
1.00452e-10
-6.60532e-10
1.20727e-10
-7.11824e-10
1.42664e-10
-7.60713e-10
1.66231e-10
-8.07261e-10
1.914e-10
-8.51515e-10
2.18151e-10
-8.93518e-10
2.46467e-10
-9.33318e-10
2.76335e-10
-9.70973e-10
3.07743e-10
-1.00656e-09
3.40673e-10
-1.04016e-09
3.75098e-10
-1.07191e-09
4.10974e-10
-1.10195e-09
4.48237e-10
-1.13044e-09
4.86789e-10
-1.15757e-09
5.26491e-10
-1.18358e-09
-1.20868e-09
5.67155e-10
1.03708e-12
-4.92747e-11
3.99154e-12
-1.38914e-10
8.90308e-12
-2.21996e-10
1.57963e-11
-2.99279e-10
2.46578e-11
-3.71519e-10
3.54424e-11
-4.39458e-10
4.80894e-11
-5.03723e-10
6.25337e-11
-5.64774e-10
7.87113e-11
-6.22924e-10
9.65621e-11
-6.78383e-10
1.1603e-10
-7.31293e-10
1.37065e-10
-7.81748e-10
1.59619e-10
-8.29816e-10
1.83653e-10
-8.75549e-10
2.09128e-10
-9.18994e-10
2.3601e-10
-9.602e-10
2.64263e-10
-9.99226e-10
2.93849e-10
-1.03614e-09
3.24723e-10
-1.07104e-09
3.56829e-10
-1.10402e-09
3.90092e-10
-1.13521e-09
4.24415e-10
-1.16476e-09
4.59668e-10
-1.19283e-09
4.95682e-10
-1.21959e-09
-1.24524e-09
5.32242e-10
9.82793e-13
-5.02572e-11
3.79941e-12