/*--------------------------------*- C++ -*----------------------------------*\
  =========                 |
  \\      /  F ield         | OpenFOAM: The Open Source CFD Toolbox
   \\    /   O peration     | Website:  https://openfoam.org
    \\  /    A nd           | Version:  13
     \\/     M anipulation  |
\*---------------------------------------------------------------------------*/
FoamFile
{
    format      ascii;
    class       volVectorField;
    location    "26";
    object      U;
}
// * * * * * * * * * * * * * * * * * * * * * * * * * * * * * * * * * * * * * //

dimensions      [0 1 -1 0 0 0 0];

internalField   nonuniform List<vector> 
6440
(
(0.00455885 0.0422644 0)
(-0.108745 0.0617233 0)
(-0.26385 0.0730411 -4.77637e-16)
(-0.361808 0.0712737 4.26594e-16)
(-0.348716 0.0614673 0)
(-0.279959 0.0533008 -9.14994e-16)
(-0.197108 0.0442386 1.13867e-15)
(-0.137279 0.0484795 0)
(-0.103727 0.0462015 0)
(-0.0893605 0.0206315 0)
(-0.0528842 -0.0161243 5.65794e-15)
(-0.0592907 -0.0167832 -8.76576e-15)
(-0.0807184 0.00127114 3.7065e-15)
(-0.0911992 0.0244807 0)
(-0.0862977 0.032154 -7.58466e-15)
(-0.0387406 0.0212317 8.18274e-15)
(0.0190018 -0.0159982 0)
(0.0929077 -0.036483 0)
(0.171039 -0.0397777 0)
(0.241456 -0.0298262 0)
(0.274078 -0.00985674 -3.66211e-15)
(0.272444 0.0160563 7.20651e-15)
(0.238373 0.0479276 -3.93247e-15)
(0.171915 0.069655 -4.86058e-15)
(0.0697638 0.0722796 6.28054e-15)
(0.0193093 0.140715 0)
(-0.0854072 0.179987 0)
(-0.178146 0.155349 -8.17777e-16)
(-0.135738 0.111059 1.05703e-15)
(0.0301091 0.00587249 0)
(0.190275 -0.0843065 -6.58999e-16)
(0.325541 -0.111302 1.02866e-15)
(0.420622 -0.0758463 -4.75049e-16)
(0.459105 -0.00153387 0)
(0.436034 0.0844362 0)
(0.356264 0.147582 0)
(0.22866 0.146587 -1.44546e-15)
(0.0772198 0.0774623 2.3299e-15)
(0.00176252 0.0474916 4.07353e-15)
(0.000212788 0.0369347 -5.72002e-15)
(0.0342499 -0.053049 0)
(0.0770253 -0.156617 0)
(0.146995 -0.172507 0)
(0.218177 -0.134042 0)
(0.277553 -0.0683858 0)
(0.317797 0.0108461 -3.50529e-15)
(0.323423 0.088666 3.23922e-15)
(0.294136 0.153623 0)
(0.231197 0.200056 -3.67717e-15)
(0.112434 0.190477 8.91653e-15)
(0.0392323 0.155799 0)
(0.0252375 0.16858 0)
(0.0927699 0.115803 0)
(0.298941 -0.0498491 0)
(0.515243 -0.232732 0)
(0.677893 -0.307424 0)
(0.781263 -0.266265 2.76583e-16)
(0.825889 -0.148827 -2.93569e-16)
(0.819981 0.00519979 0)
(0.769677 0.167751 0)
(0.685259 0.305463 0)
(0.547279 0.377463 0)
(0.36024 0.341628 0)
(0.168184 0.206842 1.56732e-15)
(0.0818031 0.077088 -1.22138e-14)
(0.0898171 -0.13947 4.74439e-15)
(0.12579 -0.280947 0)
(0.189816 -0.282549 0)
(0.245782 -0.207886 0)
(0.284698 -0.0999393 0)
(0.305281 0.0198547 0)
(0.306026 0.138729 0)
(0.282146 0.240556 3.06531e-15)
(0.234955 0.311451 -3.2105e-15)
(0.126788 0.30763 3.656e-15)
(0.0292867 0.102952 0)
(0.120972 0.0628677 0)
(0.372062 -0.188112 -2.18327e-16)
(0.635159 -0.424495 1.39456e-16)
(0.819056 -0.521122 0)
(0.914554 -0.475021 -2.22383e-16)
(0.95768 -0.329676 2.36736e-16)
(0.948192 -0.132707 0)
(0.914591 0.0811538 5.93271e-16)
(0.844923 0.290086 -5.58032e-16)
(0.751532 0.46803 5.52027e-16)
(0.632164 0.581995 -1.16239e-15)
(0.477444 0.583994 6.81158e-16)
(0.279935 0.430761 0)
(0.146597 0.183308 0)
(0.111426 -0.216409 0)
(0.157368 -0.358917 2.46625e-15)
(0.218566 -0.337323 -6.06056e-19)
(0.261366 -0.23244 -2.74981e-15)
(0.284463 -0.0891125 0)
(0.282421 0.0630317 0)
(0.266846 0.204778 3.3135e-15)
(0.24388 0.323541 -3.05963e-15)
(0.21511 0.401532 -3.05137e-15)
(0.120872 0.360812 6.81878e-15)
(0.0516302 0.0100304 0)
(0.296893 -0.314862 0)
(0.574626 -0.605909 -1.34831e-16)
(0.765099 -0.716451 1.09278e-16)
(0.883419 -0.664781 0)
(0.895783 -0.50934 -2.23977e-16)
(0.876869 -0.294963 2.6032e-16)
(0.83938 -0.0512471 0)
(0.786725 0.20211 6.36746e-16)
(0.717187 0.43961 -5.8648e-16)
(0.626336 0.635026 5.70046e-16)
(0.5192 0.759796 -1.17697e-15)
(0.396982 0.766964 6.65977e-16)
(0.245218 0.597387 0)
(0.14937 0.27171 4.35977e-15)
(0.0979385 -0.285208 -2.67451e-15)
(0.152927 -0.388491 2.34256e-15)
(0.197054 -0.337481 -1.0316e-18)
(0.243626 -0.202055 -3.15794e-15)
(0.274687 -0.0386906 0)
(0.251669 0.128522 4.15591e-15)
(0.216648 0.280172 4.39792e-19)
(0.195119 0.398125 -3.1783e-15)
(0.188261 0.462025 -3.00949e-15)
(0.105091 0.37384 3.39958e-15)
(0.124671 -0.293943 0)
(0.383025 -0.727332 0)
(0.574361 -0.885003 -1.15257e-16)
(0.674941 -0.839671 1.09075e-16)
(0.699538 -0.685422 0)
(0.67598 -0.466979 -2.74344e-16)
(0.625761 -0.221569 3.56786e-16)
(0.568872 0.0387698 0)
(0.511126 0.310846 8.00709e-16)
(0.446248 0.572462 -7.10646e-16)
(0.365554 0.78351 6.75204e-16)
(0.270794 0.901963 -1.383e-15)
(0.176677 0.881051 7.37039e-16)
(0.0758024 0.645615 0)
(0.0534385 0.0472705 -6.13444e-15)
(0.0178832 -0.351428 2.90597e-15)
(0.0632667 -0.367535 2.85067e-15)
(0.0901901 -0.285803 -1.78316e-18)
(0.184281 -0.106042 -4.75992e-15)
(0.273188 0.0830837 0)
(0.219237 0.220902 -4.77528e-15)
(0.156397 0.353958 7.58013e-15)
(0.145251 0.453493 -3.01864e-15)
(0.157103 0.491629 -2.75193e-15)
(0.085377 0.348433 3.46653e-15)
(0.143044 -0.666178 0)
(0.321978 -0.994568 0)
(0.425758 -0.990107 -1.18178e-16)
(0.461741 -0.851185 1.25362e-16)
(0.440439 -0.631166 0)
(0.376518 -0.381927 -4.10698e-16)
(0.302572 -0.131285 7.11251e-16)
(0.23075 0.14679 0)
(0.184178 0.437529 1.21444e-15)
(0.11286 0.71156 -8.79023e-16)
(0.0257169 0.921183 6.41417e-16)
(-0.0619123 1.00895 -1.06647e-15)
(-0.135083 0.92307 5.23052e-16)
(-0.197587 0.40936 0)
(-0.189844 -0.258659 0)
(-0.164659 -0.309569 0)
(-0.165466 -0.312194 2.57072e-15)
(-0.116314 -0.230545 -1.67236e-18)
(0.0464379 -0.0202345 -4.01718e-15)
(0.227086 0.190668 0)
(0.177896 0.299505 0)
(0.100045 0.401118 3.14132e-15)
(0.100939 0.474071 -2.66498e-15)
(0.124088 0.477012 -2.65711e-15)
(0.0670992 0.289841 3.80155e-15)
(0.103683 -0.921946 0)
(0.199683 -1.1075 0)
(0.231447 -1.01008 -1.33817e-16)
(0.217436 -0.784359 1.61108e-16)
(0.16124 -0.51882 0)
(0.0766941 -0.248034 -9.2602e-16)
(0.0276403 0.0114695 1.95824e-15)
(-0.0610251 0.301236 0)
(-0.15368 0.5952 7.6643e-16)
(-0.248207 0.861628 -5.31653e-16)
(-0.335594 1.03792 4.29414e-16)
(-0.40367 1.05309 -7.85037e-16)
(-0.445886 0.775256 4.26354e-16)
(-0.458051 0.0836303 0)
(-0.442473 -0.19648 0)
(-0.454886 -0.251685 0)
(-0.46832 -0.287598 1.66198e-15)
(-0.410717 -0.235294 -9.6352e-19)
(-0.247207 -0.0572644 -2.03356e-15)
(-0.00117423 0.212899 0)
(0.102916 0.360562 0)
(0.0586102 0.418014 2.74299e-15)
(0.0652955 0.459544 -2.58186e-15)
(0.0975648 0.43818 -2.73258e-15)
(0.0530748 0.214154 8.7722e-15)
(0.0541696 -1.06044 0)
(0.0739614 -1.14151 0)
(0.0430324 -0.950179 0)
(-0.0107174 -0.672677 0)
(-0.0849855 -0.388082 6.28184e-16)
(-0.165858 -0.10672 -8.85448e-16)
(-0.26016 0.183722 6.11179e-16)
(-0.371787 0.472249 -3.51134e-16)
(-0.481943 0.761512 4.87924e-16)
(-0.577566 0.999207 6.52824e-19)
(-0.64863 1.10031 6.5901e-19)
(-0.684854 1.02276 -3.29681e-16)
(-0.689613 0.538375 -3.95256e-16)
(-0.679883 -0.0657076 1.38356e-15)
(-0.704265 -0.147868 -2.29026e-15)
(-0.750509 -0.222828 1.35326e-15)
(-0.775725 -0.294721 0)
(-0.738225 -0.2923 1.19278e-15)
(-0.607208 -0.187712 -1.29388e-15)
(-0.35492 0.0410587 1.71951e-15)
(-0.0549834 0.317529 5.15646e-19)
(0.0319101 0.40124 5.36431e-19)
(0.0499025 0.421597 -2.7147e-15)
(0.0884787 0.383804 0)
(0.0508882 0.150681 -5.17321e-15)
(0.00812949 -1.10782 0)
(-0.0394374 -1.08257 0)
(-0.11699 -0.846462 0)
(-0.207791 -0.545315 0)
(-0.31038 -0.236952 -5.08484e-16)
(-0.418338 0.0619542 5.41098e-16)
(-0.530662 0.357743 -3.38662e-16)
(-0.648142 0.652915 2.36412e-16)
(-0.754521 0.924896 0)
(-0.834657 1.10102 -3.11015e-16)
(-0.878915 1.11465 -4.64979e-19)
(-0.881944 0.901896 3.04349e-16)
(-0.862406 0.32134 0)
(-0.877357 -0.0183807 -6.32095e-16)
(-0.944767 -0.0871687 1.90629e-15)
(-1.00882 -0.197575 -1.11911e-15)
(-1.04828 -0.304479 1.00214e-15)
(-1.04471 -0.358206 -9.47318e-16)
(-0.967785 -0.344662 0)
(-0.776821 -0.232674 -1.08157e-15)
(-0.443055 0.00565708 3.0431e-15)
(-0.0587468 0.29703 -4.85565e-15)
(0.0587598 0.374974 3.22026e-15)
(0.105595 0.340216 0)
(0.0755749 0.132661 -5.63127e-15)
(-0.026255 -1.08176 0)
(-0.131747 -0.971684 0)
(-0.244506 -0.711253 0)
(-0.367917 -0.39239 0)
(-0.497888 -0.0694899 4.60088e-16)
(-0.622325 0.23379 -3.51511e-16)
(-0.744371 0.532805 2.41612e-16)
(-0.859035 0.820993 -1.84463e-16)
(-0.951697 1.05284 3.05034e-16)
(-1.0085 1.14202 2.96209e-19)
(-1.02346 1.08497 -2.70888e-16)
(-1.00104 0.730779 0)
(-0.98506 0.215667 -4.09502e-16)
(-1.04496 0.0735549 1.09331e-15)
(-1.13363 -0.0251729 -1.63943e-15)
(-1.20294 -0.170608 9.8676e-16)
(-1.25632 -0.298131 0)
(-1.28235 -0.39778 8.18077e-16)
(-1.25679 -0.464649 -7.92725e-16)
(-1.14848 -0.471135 8.18078e-16)
(-0.910814 -0.375756 3.99839e-19)
(-0.504222 -0.135668 -1.37862e-15)
(-0.0198213 0.196662 0)
(0.134244 0.301685 0)
(0.108711 0.171116 0)
(-0.0460967 -0.961308 0)
(-0.196888 -0.800431 0)
(-0.340376 -0.53626 1.7227e-16)
(-0.485694 -0.223378 -1.94264e-16)
(-0.627827 0.0947898 0)
(-0.764187 0.400878 2.60592e-16)
(-0.889979 0.697179 -3.88692e-16)
(-0.99692 0.961386 1.56812e-16)
(-1.07107 1.13174 0)
(-1.1028 1.14818 0)
(-1.09639 1.006 0)
(-1.0565 0.58534 3.11024e-16)
(-1.07393 0.2341 -4.12064e-16)
(-1.17091 0.153609 -4.68271e-16)
(-1.2612 0.0287627 -4.74739e-16)
(-1.33202 -0.131331 9.1439e-16)
(-1.39356 -0.275831 8.14835e-16)
(-1.43364 -0.411739 -7.49013e-16)
(-1.4385 -0.534214 0)
(-1.3898 -0.623961 0)
(-1.24817 -0.649879 7.29679e-16)
(-0.956285 -0.547236 -8.58068e-16)
(-0.470252 -0.225599 0)
(0.0989988 0.220424 3.27578e-15)
(0.132988 0.205784 -9.51216e-15)
(-0.0520003 -0.729681 0)
(-0.237539 -0.580206 0)
(-0.41195 -0.32136 -1.90459e-16)
(-0.579101 -0.0244817 1.99212e-16)
(-0.732958 0.279603 2.90278e-16)
(-0.874825 0.577351 -4.1753e-16)
(-0.997834 0.855958 3.29591e-16)
(-1.09095 1.07907 -1.39408e-16)
(-1.13414 1.16499 0)
(-1.14089 1.13189 2.51199e-16)
(-1.09487 0.893286 -2.70672e-16)
(-1.0763 0.515485 -3.26868e-16)
(-1.14346 0.316517 9.99958e-20)
(-1.25775 0.23635 8.23475e-16)
(-1.34405 0.0847476 -1.273e-15)
(-1.41617 -0.0881048 8.72356e-16)
(-1.47758 -0.250792 0)
(-1.51836 -0.416354 0)
(-1.53304 -0.577481 0)
(-1.5121 -0.722063 6.37333e-16)
(-1.42946 -0.831758 -6.35336e-16)
(-1.23704 -0.854233 0)
(-0.876797 -0.6576 0)
(-0.311867 -0.0915442 -1.63728e-15)
(0.166066 0.318336 1.11742e-18)
(-0.0584942 -0.481559 0)
(-0.26782 -0.326006 0)
(-0.467307 -0.0844927 2.29146e-16)
(-0.650179 0.18611 -1.72316e-16)
(-0.808484 0.466913 -2.33952e-16)
(-0.943186 0.740879 3.59773e-16)
(-1.04716 0.983856 -2.98325e-16)
(-1.10342 1.14535 1.32115e-16)
(-1.11542 1.16878 0)
(-1.09568 1.07493 -2.57678e-16)
(-1.0561 0.798519 2.86582e-16)
(-1.07866 0.530842 3.36476e-16)
(-1.19478 0.417621 -3.68803e-16)
(-1.31021 0.309906 -3.71944e-16)
(-1.39651 0.137376 -3.89932e-16)
(-1.47209 -0.0453881 8.40333e-16)
(-1.52943 -0.231232 7.47037e-16)
(-1.56404 -0.425545 -6.77937e-16)
(-1.57489 -0.618457 0)
(-1.55649 -0.801849 -6.01277e-16)
(-1.49697 -0.965411 1.17551e-15)
(-1.36218 -1.07739 -5.9675e-16)
(-1.11096 -1.02654 0)
(-0.683297 -0.544756 9.66405e-16)
(0.0282695 0.435579 -3.46439e-15)
(-0.0746123 -0.233784 1.82822e-16)
(-0.298189 -0.0705153 1.54617e-16)
(-0.505951 0.150281 -2.16934e-16)
(-0.685145 0.39192 2.75271e-16)
(-0.834144 0.641269 -2.23317e-19)
(-0.949911 0.880262 -1.6542e-16)
(-1.02639 1.07713 1.42566e-16)
(-1.05647 1.17282 1.309e-16)
(-1.04644 1.15663 -2.5813e-16)
(-1.0103 1.00663 2.71071e-16)
(-1.00516 0.76899 -3.01721e-16)
(-1.08041 0.609644 0)
(-1.22089 0.521112 -3.39437e-16)
(-1.33145 0.38328 6.87305e-16)
(-1.42426 0.195429 -3.65027e-16)
(-1.50247 -0.00612017 8.03443e-16)
(-1.55297 -0.221663 -7.22777e-16)
(-1.57269 -0.447258 0)
(-1.57877 -0.672915 0)
(-1.55494 -0.890686 5.73871e-16)
(-1.50073 -1.09341 9.34356e-19)
(-1.39274 -1.26465 -5.5497e-16)
(-1.21248 -1.32924 0)
(-0.937407 -1.03811 0)
(-0.370027 -0.0120355 -1.82059e-15)
(-0.0922065 -0.00964325 0)
(-0.317108 0.168695 0)
(-0.509529 0.367074 0)
(-0.673475 0.577127 0)
(-0.802271 0.791376 0)
(-0.893488 0.989067 0)
(-0.94252 1.13409 0)
(-0.948758 1.17348 0)
(-0.926084 1.12155 2.71998e-16)
(-0.908324 0.968132 -2.87517e-16)
(-0.955044 0.809446 0)
(-1.07557 0.718749 0)
(-1.21285 0.624602 0)
(-1.32447 0.463488 0)
(-1.42396 0.258141 0)
(-1.49962 0.0268594 0)
(-1.53955 -0.224629 -7.06598e-16)
(-1.5526 -0.486784 1.26503e-15)
(-1.55123 -0.749829 -1.16568e-15)
(-1.51565 -1.00395 5.51347e-16)
(-1.46484 -1.24226 5.34886e-16)
(-1.37656 -1.45563 -5.28253e-16)
(-1.23959 -1.59395 -5.43073e-16)
(-1.06366 -1.458 6.32069e-16)
(-0.690914 -0.539144 -1.21125e-15)
(-0.102343 0.192548 0)
(-0.307168 0.386177 0)
(-0.474776 0.553948 1.45169e-16)
(-0.613331 0.732754 -1.12288e-16)
(-0.716954 0.910331 0)
(-0.782735 1.06433 1.61374e-16)
(-0.808727 1.16033 -2.96118e-16)
(-0.802415 1.16851 1.43195e-16)
(-0.788044 1.10062 2.88351e-16)
(-0.809044 0.986937 -2.97978e-16)
(-0.901004 0.900368 -3.02369e-16)
(-1.03743 0.838103 5.9859e-16)
(-1.16781 0.727897 -2.98095e-16)
(-1.28254 0.548019 -3.08899e-16)
(-1.38213 0.316784 -3.35757e-16)
(-1.44739 0.0463327 7.73095e-16)
(-1.47606 -0.246254 0)
(-1.48174 -0.549681 6.20804e-16)
(-1.46415 -0.851937 -5.68447e-16)
(-1.43145 -1.1418 0)
(-1.39265 -1.41358 5.17491e-16)
(-1.33353 -1.66085 -1.01928e-15)
(-1.24453 -1.84884 5.15998e-16)
(-1.13206 -1.80762 5.72443e-16)
(-0.91508 -1.02229 -1.8861e-15)
(-0.0984311 0.411761 1.32651e-16)
(-0.268118 0.565509 8.79228e-17)
(-0.404967 0.706405 -1.34641e-16)
(-0.514837 0.855374 2.19118e-16)
(-0.592308 0.998776 -3.75067e-16)
(-0.635958 1.1146 1.67562e-16)
(-0.648131 1.176 0)
(-0.6432 1.16883 3.02632e-16)
(-0.651799 1.1135 -3.01548e-16)
(-0.710232 1.04995 -2.99747e-16)
(-0.824191 1.00816 2.94443e-16)
(-0.956916 0.951128 0)
(-1.08039 0.827842 2.87764e-16)
(-1.19336 0.629574 -3.03295e-16)
(-1.28286 0.364156 6.7431e-16)
(-1.32962 0.0472446 -3.7754e-19)
(-1.34472 -0.288961 -1.42039e-15)
(-1.33631 -0.631508 6.23406e-16)
(-1.31255 -0.964578 -5.68793e-16)
(-1.29119 -1.27809 -8.01722e-19)
(-1.27629 -1.57071 1.01991e-15)
(-1.26337 -1.84391 -4.96391e-16)
(-1.24222 -2.06467 0)
(-1.19801 -2.09148 0)
(-1.07652 -1.4363 0)
(-0.0765974 0.57653 0)
(-0.205018 0.70731 0)
(-0.312767 0.823866 0)
(-0.39351 0.947465 0)
(-0.447837 1.06324 0)
(-0.475612 1.15219 0)
(-0.482582 1.19595 -1.64221e-16)
(-0.48784 1.1922 1.58397e-16)
(-0.519946 1.16641 3.0759e-16)
(-0.598334 1.14653 -2.98606e-16)
(-0.710512 1.13004 -2.86761e-16)
(-0.826228 1.07165 2.81824e-16)
(-0.93782 0.934277 0)
(-1.04025 0.707542 -3.07472e-16)
(-1.10502 0.396083 3.58638e-16)
(-1.12322 0.0283073 0)
(-1.12389 -0.346752 0)
(-1.10722 -0.717376 6.55577e-16)
(-1.08493 -1.06365 -1.17906e-15)
(-1.07665 -1.37669 5.46643e-16)
(-1.10107 -1.66364 5.16565e-16)
(-1.15642 -1.93744 -9.8747e-16)
(-1.22728 -2.16568 4.85533e-16)
(-1.28716 -2.23035 0)
(-1.22308 -1.72241 -7.10432e-16)
(-0.0461222 0.680564 0)
(-0.134322 0.813535 0)
(-0.212829 0.908821 1.29104e-16)
(-0.26712 1.01263 -1.12367e-16)
(-0.302335 1.10897 0)
(-0.318976 1.18211 1.82845e-16)
(-0.326081 1.2205 -3.42561e-16)
(-0.341311 1.22889 1.63258e-16)
(-0.385101 1.22883 3.1167e-16)
(-0.461408 1.23102 -2.98651e-16)
(-0.55184 1.21512 0)
(-0.64448 1.14104 2.8417e-16)
(-0.740582 0.982726 -2.96252e-16)
(-0.821385 0.728041 -3.2993e-16)
(-0.84755 0.378906 -4.14929e-16)
(-0.833347 -0.0239486 1.07313e-15)
(-0.827519 -0.419758 0)
(-0.801533 -0.804034 7.30846e-16)
(-0.775942 -1.14327 -6.47903e-16)
(-0.782945 -1.42958 0)
(-0.849806 -1.67819 0)
(-0.982793 -1.91248 0)
(-1.17583 -2.11568 0)
(-1.39141 -2.12795 4.8096e-16)
(-1.40562 -1.70526 -1.20527e-15)
(-0.0156036 0.740845 0)
(-0.06501 0.883644 0)
(-0.114055 0.962953 0)
(-0.143009 1.05415 0)
(-0.161546 1.14104 0)
(-0.168953 1.20996 0)
(-0.171963 1.25278 0)
(-0.184267 1.27639 0)
(-0.218157 1.29654 0)
(-0.270505 1.31504 0)
(-0.328394 1.30843 0)
(-0.389449 1.24276 0)
(-0.463649 1.08711 0)
(-0.525208 0.807998 0)
(-0.515474 0.400276 0)
(-0.479517 -0.0451533 0)
(-0.483701 -0.469246 0)
(-0.449679 -0.873647 0)
(-0.41885 -1.20586 0)
(-0.427435 -1.45556 0)
(-0.514104 -1.64032 0)
(-0.701043 -1.79197 0)
(-0.988643 -1.8934 0)
(-1.35475 -1.75425 0)
(-1.63124 -0.989748 0)
(0.0109394 0.757705 0)
(-0.00354735 0.918466 0)
(-0.023535 0.987087 0)
(-0.0289489 1.07 0)
(-0.0313611 1.15183 0)
(-0.0270724 1.21998 0)
(-0.0200028 1.26754 0)
(-0.0180747 1.30015 0)
(-0.0291989 1.32956 0)
(-0.0490633 1.35854 0)
(-0.0640304 1.36087 0)
(-0.0811968 1.29626 0)
(-0.123652 1.14076 0)
(-0.167069 0.850602 0)
(-0.106547 0.428825 0)
(-0.0464702 0.0114417 0)
(-0.105275 -0.415117 0)
(-0.0867583 -0.835091 0)
(-0.0568518 -1.1739 0)
(-0.0438214 -1.40818 0)
(-0.0838098 -1.5412 0)
(-0.21885 -1.60907 0)
(-0.456354 -1.65244 0)
(-0.703696 -1.64908 0)
(-0.763587 -1.44733 0)
(0.0333821 0.733423 0)
(0.0499247 0.921831 0)
(0.0563744 0.986133 0)
(0.0737594 1.06346 0)
(0.0888143 1.14326 0)
(0.107518 1.21114 0)
(0.130597 1.2604 0)
(0.1544 1.29455 0)
(0.173684 1.32302 0)
(0.192837 1.33908 0)
(0.224346 1.33837 0)
(0.264337 1.28456 0)
(0.279999 1.1201 0)
(0.227379 0.831164 0)
(0.293423 0.420184 0)
(0.351646 0.00249336 0)
(0.315536 -0.425128 0)
(0.316181 -0.840198 0)
(0.322817 -1.17757 0)
(0.320224 -1.4092 0)
(0.2997 -1.52643 0)
(0.229556 -1.54698 0)
(0.0833715 -1.51196 0)
(-0.0945698 -1.44086 0)
(-0.150884 -1.31268 0)
(0.0523177 0.669236 0)
(0.0973126 0.895457 0)
(0.128074 0.963887 0)
(0.165815 1.03767 0)
(0.198788 1.11631 0)
(0.233552 1.18403 0)
(0.274493 1.23234 0)
(0.322048 1.26298 0)
(0.373932 1.28399 0)
(0.432099 1.29684 0)
(0.50729 1.28391 0)
(0.597581 1.21384 0)
(0.67793 1.03528 0)
(0.659992 0.734223 0)
(0.702553 0.342626 0)
(0.734251 -0.076213 0)
(0.750034 -0.473157 0)
(0.765409 -0.840737 0)
(0.752414 -1.15198 0)
(0.723696 -1.37475 0)
(0.690202 -1.48983 0)
(0.636779 -1.50065 0)
(0.545079 -1.44469 0)
(0.435968 -1.38231 0)
(0.388836 -1.36054 0)
(0.0705097 0.566743 0)
(0.141628 0.842028 0)
(0.193068 0.922822 0)
(0.247652 0.993436 0)
(0.298474 1.06998 0)
(0.349521 1.13531 0)
(0.407454 1.1795 0)
(0.476583 1.20204 0)
(0.557648 1.20786 0)
(0.651572 1.19922 0)
(0.762463 1.16638 0)
(0.889014 1.08283 0)
(1.02255 0.900729 0)
(1.08197 0.602309 0)
(1.13451 0.230668 0)
(1.17578 -0.154425 0)
(1.20804 -0.512048 0)
(1.21443 -0.838876 0)
(1.18271 -1.11986 0)
(1.13564 -1.32949 0)
(1.08901 -1.44528 0)
(1.03717 -1.46029 0)
(0.966921 -1.40231 0)
(0.885177 -1.34231 0)
(0.834438 -1.35545 0)
(0.0840147 0.427635 0)
(0.182161 0.76541 0)
(0.251938 0.865982 0)
(0.318835 0.934782 0)
(0.384662 1.00655 0)
(0.450714 1.06671 0)
(0.52309 1.10361 0)
(0.608678 1.11475 0)
(0.711591 1.10154 0)
(0.832021 1.06664 0)
(0.969549 1.00895 0)
(1.12276 0.910692 0)
(1.28958 0.737821 0)
(1.41896 0.471895 0)
(1.51689 0.140215 0)
(1.58175 -0.198404 0)
(1.6101 -0.522043 0)
(1.59848 -0.824378 0)
(1.55678 -1.0827 0)
(1.5032 -1.27692 0)
(1.44974 -1.39198 0)
(1.39831 -1.41631 0)
(1.3403 -1.3662 0)
(1.2733 -1.31037 0)
(1.21992 -1.33744 0)
(0.0865694 0.260815 0)
(0.215205 0.656101 0)
(0.30429 0.796468 0)
(0.3792 0.867001 0)
(0.4548 0.932022 0)
(0.533084 0.984294 0)
(0.617208 1.0109 0)
(0.714267 1.00877 0)
(0.83024 0.977678 0)
(0.967619 0.919501 0)
(1.12401 0.83665 0)
(1.29598 0.722593 0)
(1.47963 0.558753 0)
(1.64502 0.327773 0)
(1.77429 0.0414639 0)
(1.85427 -0.26393 0)
(1.88597 -0.562077 0)
(1.88064 -0.830008 0)
(1.85019 -1.05306 0)
(1.8038 -1.22469 0)
(1.75174 -1.33548 0)
(1.70343 -1.37026 0)
(1.65601 -1.33356 0)
(1.60218 -1.28548 0)
(1.55234 -1.31069 0)
(0.0689343 0.111491 0)
(0.229731 0.511764 0)
(0.344752 0.71048 0)
(0.428634 0.795251 0)
(0.508148 0.853537 0)
(0.593186 0.895378 0)
(0.686246 0.909643 0)
(0.791833 0.892805 0)
(0.915271 0.845392 0)
(1.0608 0.769202 0)
(1.2271 0.666004 0)
(1.40886 0.535893 0)
(1.59683 0.370471 0)
(1.77058 0.158913 0)
(1.90637 -0.0949267 0)
(1.99793 -0.363486 0)
(2.04894 -0.618809 0)
(2.06909 -0.841906 0)
(2.06284 -1.02772 0)
(2.03312 -1.17668 0)
(1.99127 -1.28202 0)
(1.9523 -1.32713 0)
(1.91743 -1.3069 0)
(1.87777 -1.26707 0)
(1.83632 -1.28419 0)
(0.0355957 0.0417831 0)
(0.210029 0.347191 0)
(0.361976 0.599576 0)
(0.462927 0.718349 0)
(0.543701 0.776057 0)
(0.629073 0.80504 0)
(0.726127 0.804145 0)
(0.837634 0.770088 0)
(0.96622 0.704787 0)
(1.11491 0.611307 0)
(1.28336 0.492049 0)
(1.46512 0.347215 0)
(1.64849 0.175127 0)
(1.81764 -0.0270737 0)
(1.95935 -0.250303 0)
(2.0687 -0.474925 0)
(2.14689 -0.681952 0)
(2.19521 -0.863139 0)
(2.21355 -1.01748 0)
(2.20465 -1.14593 0)
(2.18064 -1.24359 0)
(2.15695 -1.29603 0)
(2.13608 -1.28986 0)
(2.10923 -1.2556 0)
(2.07611 -1.26258 0)
(0.00269275 0.0497467 0)
(0.142355 0.206131 0)
(0.335735 0.460548 0)
(0.469654 0.627024 0)
(0.557017 0.697954 0)
(0.637105 0.715157 0)
(0.731254 0.694773 0)
(0.844099 0.639246 0)
(0.97589 0.551812 0)
(1.12661 0.437278 0)
(1.29411 0.299831 0)
(1.47271 0.143211 0)
(1.65265 -0.030747 0)
(1.8227 -0.21759 0)
(1.97792 -0.406589 0)
(2.11078 -0.587963 0)
(2.21379 -0.756498 0)
(2.28502 -0.906147 0)
(2.3252 -1.03377 0)
(2.33906 -1.14098 0)
(2.33699 -1.22663 0)
(2.32972 -1.28029 0)
(2.31948 -1.28122 0)
(2.29929 -1.24687 0)
(2.26936 -1.24553 0)
(-0.0197813 0.0728538 0)
(0.0416275 0.122288 0)
(0.245552 0.312422 0)
(0.423195 0.511425 0)
(0.530786 0.612504 0)
(0.608614 0.625855 0)
(0.694081 0.583311 0)
(0.801972 0.501637 0)
(0.933124 0.387934 0)
(1.08474 0.248387 0)
(1.25447 0.091087 0)
(1.43655 -0.0758389 0)
(1.62316 -0.244527 0)
(1.81086 -0.407532 0)
(1.98751 -0.563061 0)
(2.1393 -0.712431 0)
(2.25911 -0.851751 0)
(2.34648 -0.973473 0)
(2.40439 -1.07445 0)
(2.43842 -1.15885 0)
(2.45544 -1.22953 0)
(2.45869 -1.27533 0)
(2.45053 -1.27273 0)
(2.43069 -1.23326 0)
(2.39851 -1.22875 0)
(0.0295661 -0.0317478 0)
(0.0834699 -0.0135272 0)
(0.13984 0.155065 0)
(0.302326 0.373988 0)
(0.434483 0.512804 0)
(0.519619 0.535362 0)
(0.598643 0.474852 0)
(0.697626 0.365254 0)
(0.821977 0.223373 0)
(0.970803 0.0566657 0)
(1.14366 -0.122146 0)
(1.33729 -0.295426 0)
(1.54755 -0.452804 0)
(1.75644 -0.595684 0)
(1.947 -0.729116 0)
(2.10882 -0.854101 0)
(2.23897 -0.965824 0)
(2.33783 -1.05853 0)
(2.4094 -1.13203 0)
(2.45714 -1.19233 0)
(2.4786 -1.24537 0)
(2.48315 -1.276 0)
(2.48465 -1.25952 0)
(2.46523 -1.21555 0)
(2.43559 -1.21057 0)
(0.0870304 -0.207758 0)
(0.203412 -0.180533 0)
(0.123339 0.00160713 0)
(0.136782 0.229363 0)
(0.240824 0.396381 0)
(0.332472 0.437337 0)
(0.41174 0.367192 0)
(0.502606 0.230166 0)
(0.611117 0.0588262 0)
(0.73586 -0.136608 0)
(0.895954 -0.339177 0)
(1.10146 -0.520908 0)
(1.32699 -0.674603 0)
(1.54506 -0.806622 0)
(1.74121 -0.922083 0)
(1.9106 -1.02185 0)
(2.05253 -1.10325 0)
(2.17316 -1.16444 0)
(2.2718 -1.20788 0)
(2.34468 -1.24221 0)
(2.38887 -1.27334 0)
(2.41113 -1.28097 0)
(2.40669 -1.24335 0)
(2.3816 -1.20507 0)
(2.37175 -1.20337 0)
(0.0972972 -0.270891 0)
(0.192015 -0.16561 0)
(0.0479848 0.0579099 0)
(-0.0810339 0.229406 0)
(-0.0703268 0.346114 0)
(-0.0442154 0.354871 0)
(0.00667833 0.268831 0)
(0.0839988 0.130231 0)
(0.150669 -0.0473404 0)
(0.242176 -0.316263 0)
(0.42821 -0.587609 0)
(0.674911 -0.792518 0)
(0.925377 -0.941584 0)
(1.15346 -1.05491 0)
(1.35572 -1.14313 0)
(1.53346 -1.21099 0)
(1.68731 -1.26003 0)
(1.82246 -1.2905 0)
(1.93914 -1.3066 0)
(2.03633 -1.31802 0)
(2.11035 -1.32026 0)
(2.14841 -1.29265 0)
(2.15254 -1.23653 0)
(2.16397 -1.19894 0)
(2.24636 -1.25255 0)
(0.0353819 -0.140313 0)
(0.0767734 0.034036 0)
(-0.151285 0.248519 0)
(-0.375727 0.358573 0)
(-0.476435 0.397302 0)
(-0.537707 0.308207 0)
(-0.579077 0.112776 0)
(-0.554145 -0.125666 0)
(-0.403107 -0.351493 0)
(-0.126344 -0.620108 0)
(0.139917 -0.889064 0)
(0.414903 -1.06391 0)
(0.656746 -1.17998 0)
(0.866721 -1.26301 0)
(1.05075 -1.32454 0)
(1.21325 -1.36949 0)
(1.35797 -1.39924 0)
(1.48742 -1.41435 0)
(1.60566 -1.41859 0)
(1.7122 -1.41187 0)
(1.794 -1.38135 0)
(1.84187 -1.32159 0)
(1.88501 -1.24962 0)
(1.99706 -1.25078 0)
(2.19743 -1.42781 0)
(-0.104852 0.13241 0)
(-0.344918 0.337116 0)
(-0.596367 0.460774 0)
(-0.80718 0.506846 0)
(-0.936381 0.475353 0)
(-0.982368 0.356574 0)
(-0.881155 0.171482 0)
(-0.69209 -0.0768599 0)
(-0.440896 -0.421541 0)
(-0.169337 -0.776836 0)
(0.0971554 -1.07975 0)
(0.346772 -1.25167 0)
(0.568685 -1.35215 0)
(0.761715 -1.41723 0)
(0.929977 -1.46289 0)
(1.07734 -1.49549 0)
(1.20752 -1.51702 0)
(1.32531 -1.52742 0)
(1.43479 -1.52446 0)
(1.532 -1.5004 0)
(1.6071 -1.45012 0)
(1.68206 -1.38315 0)
(1.80612 -1.36249 0)
(2.0191 -1.46618 0)
(2.26042 -1.67456 0)
(-0.20309 0.403389 0)
(-0.530064 0.578359 0)
(-0.800271 0.661766 0)
(-1.0066 0.68554 0)
(-1.11195 0.624223 0)
(-1.10044 0.458677 0)
(-0.992023 0.173579 0)
(-0.782542 -0.228382 0)
(-0.521808 -0.653003 0)
(-0.242831 -1.04199 0)
(0.0290135 -1.33596 0)
(0.278883 -1.48711 0)
(0.503756 -1.56004 0)
(0.703142 -1.59687 0)
(0.877113 -1.61719 0)
(1.02768 -1.62973 0)
(1.15913 -1.63657 0)
(1.27603 -1.63485 0)
(1.38183 -1.61906 0)
(1.47644 -1.58649 0)
(1.57162 -1.54605 0)
(1.70264 -1.52859 0)
(1.89961 -1.5832 0)
(2.12646 -1.71391 0)
(2.31222 -1.86756 0)
(-0.214532 0.73247 0)
(-0.522086 0.828181 0)
(-0.782421 0.854494 0)
(-0.973614 0.815985 0)
(-1.07296 0.675539 0)
(-1.10507 0.411059 0)
(-1.00089 0.0276092 0)
(-0.816443 -0.440152 0)
(-0.564543 -0.916886 0)
(-0.286904 -1.32795 0)
(-0.0179067 -1.60849 0)
(0.228617 -1.73702 0)
(0.454275 -1.7826 0)
(0.656374 -1.79125 0)
(0.834377 -1.78541 0)
(0.990119 -1.77541 0)
(1.12767 -1.76284 0)
(1.25082 -1.74614 0)
(1.36488 -1.72347 0)
(1.48119 -1.69906 0)
(1.61885 -1.68912 0)
(1.79213 -1.71765 0)
(1.98351 -1.79014 0)
(2.14964 -1.88585 0)
(2.26593 -1.9803 0)
(-0.181332 1.06296 0)
(-0.433898 1.0721 0)
(-0.661005 1.03761 0)
(-0.835746 0.937971 0)
(-0.957867 0.743186 0)
(-1.00658 0.43259 0)
(-0.940039 -0.00985769 0)
(-0.786084 -0.565412 0)
(-0.547523 -1.1259 0)
(-0.275511 -1.58178 0)
(-0.0121736 -1.86002 0)
(0.226908 -1.96884 0)
(0.444403 -1.99336 0)
(0.639429 -1.97999 0)
(0.812479 -1.9529 0)
(0.966476 -1.9237 0)
(1.10568 -1.89624 0)
(1.23519 -1.87166 0)
(1.36291 -1.85129 0)
(1.50027 -1.84086 0)
(1.65287 -1.85019 0)
(1.81075 -1.88305 0)
(1.95287 -1.93344 0)
(2.06724 -1.9938 0)
(2.15916 -2.06154 0)
(-0.131361 1.31965 0)
(-0.316974 1.29147 0)
(-0.494041 1.21053 0)
(-0.646029 1.07769 0)
(-0.77677 0.869614 0)
(-0.84235 0.536848 0)
(-0.802455 0.0297755 0)
(-0.674985 -0.621293 0)
(-0.4566 -1.29452 0)
(-0.201439 -1.81529 0)
(0.0453193 -2.0997 0)
(0.270866 -2.18896 0)
(0.47489 -2.19277 0)
(0.657061 -2.15869 0)
(0.819364 -2.11254 0)
(0.965509 -2.06816 0)
(1.10025 -2.03142 0)
(1.22941 -2.00364 0)
(1.35915 -1.98569 0)
(1.49205 -1.97971 0)
(1.62455 -1.98698 0)
(1.74896 -2.0074 0)
(1.86191 -2.04159 0)
(1.9662 -2.09084 0)
(2.0652 -2.15362 0)
(-0.0807795 1.49642 0)
(-0.19509 1.46693 0)
(-0.312637 1.35653 0)
(-0.424091 1.21139 0)
(-0.547583 1.00739 0)
(-0.604256 0.683125 0)
(-0.548356 0.164313 0)
(-0.455838 -0.577246 0)
(-0.269954 -1.40242 0)
(-0.0552534 -2.0141 0)
(0.156029 -2.31814 0)
(0.3575 -2.39097 0)
(0.540351 -2.37587 0)
(0.70402 -2.32221 0)
(0.850536 -2.25889 0)
(0.983463 -2.20209 0)
(1.10738 -2.15776 0)
(1.22678 -2.12611 0)
(1.34427 -2.10614 0)
(1.46 -2.09719 0)
(1.57318 -2.09992 0)
(1.68426 -2.11673 0)
(1.79401 -2.14954 0)
(1.90148 -2.19716 0)
(2.00357 -2.25512 0)
(-0.0332727 1.58947 0)
(-0.0768319 1.58263 0)
(-0.128241 1.45505 0)
(-0.190467 1.29686 0)
(-0.296318 1.09941 0)
(-0.299621 0.831466 0)
(-0.134918 0.437015 0)
(-0.127447 -0.403541 0)
(0.0155708 -1.42833 0)
(0.161903 -2.15279 0)
(0.320526 -2.49365 0)
(0.483573 -2.56367 0)
(0.636135 -2.53482 0)
(0.774816 -2.46513 0)
(0.90019 -2.38771 0)
(1.01549 -2.32071 0)
(1.12454 -2.26979 0)
(1.23032 -2.23432 0)
(1.33484 -2.21235 0)
(1.43956 -2.20309 0)
(1.54527 -2.20742 0)
(1.65157 -2.226 0)
(1.75638 -2.25769 0)
(1.85649 -2.29987 0)
(1.94967 -2.34973 0)
(0.0111963 1.5968 0)
(0.0346541 1.64431 0)
(0.0461733 1.48839 0)
(0.0590896 1.30873 0)
(-0.0377611 1.10824 0)
(0.0623096 0.866028 0)
(0.190133 0.585341 0)
(0.224299 -0.244835 0)
(0.347758 -1.40023 0)
(0.428655 -2.21061 0)
(0.525853 -2.61713 0)
(0.641211 -2.69611 0)
(0.755902 -2.6619 0)
(0.863243 -2.58236 0)
(0.963282 -2.4956 0)
(1.05843 -2.42225 0)
(1.15149 -2.36804 0)
(1.24454 -2.33169 0)
(1.33891 -2.31066 0)
(1.43481 -2.30342 0)
(1.5313 -2.30895 0)
(1.62664 -2.326 0)
(1.71889 -2.35327 0)
(1.8069 -2.38962 0)
(1.89055 -2.43389 0)
(0.0528204 1.52494 0)
(0.135068 1.59332 0)
(0.202028 1.45432 0)
(0.279659 1.24184 0)
(0.195855 1.00083 0)
(0.3613 0.587526 0)
(0.465193 0.142996 0)
(0.5573 -0.487161 0)
(0.669113 -1.41756 0)
(0.705781 -2.22584 0)
(0.749962 -2.68521 0)
(0.816136 -2.78162 0)
(0.888279 -2.75184 0)
(0.960974 -2.66983 0)
(1.03316 -2.57994 0)
(1.10661 -2.50558 0)
(1.18283 -2.45234 0)
(1.26217 -2.41788 0)
(1.3441 -2.39871 0)
(1.42751 -2.39229 0)
(1.51107 -2.39695 0)
(1.59371 -2.41182 0)
(1.67481 -2.43643 0)
(1.75405 -2.47014 0)
(1.83123 -2.51211 0)
(0.0904732 1.37767 0)
(0.22292 1.50446 0)
(0.330465 1.35425 0)
(0.456692 1.10801 0)
(0.43125 0.80397 0)
(0.580179 0.13835 0)
(0.685639 -0.420796 0)
(0.840297 -0.85664 0)
(0.93993 -1.48335 0)
(0.952696 -2.22379 0)
(0.963417 -2.71194 0)
(0.988016 -2.82245 0)
(1.01997 -2.80325 0)
(1.05748 -2.72568 0)
(1.10119 -2.63905 0)
(1.15243 -2.56912 0)
(1.21088 -2.52055 0)
(1.27505 -2.48987 0)
(1.34325 -2.47312 0)
(1.41403 -2.46786 0)
(1.48627 -2.47293 0)
(1.55918 -2.4878 0)
(1.63207 -2.51198 0)
(1.70431 -2.54477 0)
(1.77536 -2.58523 0)
(0.12078 1.16092 0)
(0.292674 1.34023 0)
(0.434426 1.20175 0)
(0.581431 0.937443 0)
(0.637653 0.59064 0)
(0.778688 -0.00853962 0)
(0.90921 -0.574927 0)
(1.05491 -1.00576 0)
(1.12613 -1.53931 0)
(1.14033 -2.22379 0)
(1.14172 -2.71589 0)
(1.13843 -2.82782 0)
(1.13613 -2.82126 0)
(1.1418 -2.75119 0)
(1.15951 -2.67357 0)
(1.19048 -2.61321 0)
(1.23269 -2.57278 0)
(1.28318 -2.54804 0)
(1.33946 -2.53541 0)
(1.39976 -2.53303 0)
(1.4627 -2.54008 0)
(1.52714 -2.55604 0)
(1.59215 -2.58038 0)
(1.65702 -2.61248 0)
(1.72116 -2.65178 0)
(0.14187 0.889085 0)
(0.342554 1.13097 0)
(0.51159 1.02277 0)
(0.664067 0.75794 0)
(0.775554 0.399681 0)
(0.907565 -0.128654 0)
(1.04745 -0.66916 0)
(1.16575 -1.10835 0)
(1.22698 -1.60504 0)
(1.26812 -2.24202 0)
(1.27481 -2.71152 0)
(1.25321 -2.82004 0)
(1.22469 -2.81133 0)
(1.2048 -2.75072 0)
(1.20253 -2.68744 0)
(1.21824 -2.64132 0)
(1.24795 -2.61191 0)
(1.28747 -2.59501 0)
(1.33381 -2.58784 0)
(1.38487 -2.58925 0)
(1.43908 -2.59879 0)