/*--------------------------------*- C++ -*----------------------------------*\
  =========                 |
  \\      /  F ield         | OpenFOAM: The Open Source CFD Toolbox
   \\    /   O peration     | Website:  https://openfoam.org
    \\  /    A nd           | Version:  13
     \\/     M anipulation  |
\*---------------------------------------------------------------------------*/
FoamFile
{
    format      ascii;
    class       volVectorField;
    location    "26";
    object      U;
}
// * * * * * * * * * * * * * * * * * * * * * * * * * * * * * * * * * * * * * //

dimensions      [0 1 -1 0 0 0 0];

internalField   nonuniform List<vector> 
6440
(
(-2.17756e-07 3.99775e-07 0)
(-5.10438e-07 5.45046e-07 0)
(-9.01704e-07 4.87274e-07 -1.98247e-20)
(-1.13934e-06 5.00256e-07 1.97679e-20)
(-1.34131e-06 5.76254e-07 0)
(-1.45919e-06 6.68522e-07 -3.92343e-20)
(-1.48128e-06 7.54889e-07 3.90128e-20)
(-1.41383e-06 8.315e-07 0)
(-1.25288e-06 8.89743e-07 7.70101e-20)
(-9.93962e-07 9.17421e-07 -7.63725e-20)
(-6.39477e-07 9.04272e-07 -7.56921e-20)
(-1.99489e-07 8.39236e-07 7.7234e-24)
(3.06929e-07 7.15165e-07 1.97675e-23)
(8.51494e-07 5.27591e-07 7.32606e-20)
(1.38196e-06 2.87283e-07 7.22913e-20)
(1.88701e-06 1.68325e-08 -7.13584e-20)
(2.38572e-06 -2.97793e-07 0)
(2.81046e-06 -6.36177e-07 1.38413e-19)
(3.08841e-06 -9.48848e-07 -1.44524e-22)
(3.23516e-06 -1.21578e-06 -1.34113e-19)
(3.24575e-06 -1.3922e-06 1.31672e-19)
(3.08734e-06 -1.39119e-06 -2.58848e-19)
(3.11762e-06 -1.2084e-06 1.27151e-19)
(2.5434e-06 -1.27896e-07 -1.24644e-19)
(8.08235e-07 9.84444e-07 4.87699e-23)
(-1.75419e-07 1.00568e-06 0)
(-3.29615e-07 1.27046e-06 0)
(-5.07873e-07 9.8854e-07 -2.08284e-20)
(-5.34924e-07 8.28482e-07 2.07699e-20)
(-5.08987e-07 7.83056e-07 0)
(-4.26556e-07 7.93178e-07 -4.12321e-20)
(-2.72493e-07 8.32209e-07 4.10037e-20)
(-2.56007e-08 8.70858e-07 0)
(3.02535e-07 9.00174e-07 0)
(6.99738e-07 9.2164e-07 0)
(1.1421e-06 9.27155e-07 0)
(1.61101e-06 9.09598e-07 -7.88657e-20)
(2.09436e-06 8.63032e-07 7.80362e-20)
(2.56025e-06 8.00077e-07 0)
(3.00492e-06 7.2411e-07 7.6157e-20)
(3.41234e-06 6.50485e-07 -7.51916e-20)
(3.73869e-06 5.86985e-07 0)
(3.95716e-06 5.25574e-07 0)
(4.0689e-06 4.62873e-07 1.4356e-19)
(4.08611e-06 4.05505e-07 -1.41384e-19)
(3.91539e-06 3.9822e-07 1.38711e-19)
(3.47364e-06 5.0595e-07 -1.36461e-19)
(3.38492e-06 6.26987e-07 -1.33687e-19)
(3.13068e-06 1.54186e-06 2.3796e-22)
(7.09555e-07 2.8525e-06 9.7728e-20)
(-1.40379e-07 1.36303e-06 0)
(-2.34711e-07 1.47905e-06 0)
(-2.61928e-07 9.03312e-07 -2.08373e-20)
(-1.35649e-07 5.32813e-07 2.07823e-20)
(5.48062e-08 3.29466e-07 0)
(2.99095e-07 2.26276e-07 -4.1285e-20)
(5.5757e-07 2.18763e-07 8.21603e-20)
(8.52601e-07 2.75199e-07 -4.08422e-20)
(1.24266e-06 3.42799e-07 8.12043e-20)
(1.70904e-06 4.02131e-07 -8.0584e-20)
(2.2039e-06 4.72614e-07 -7.99639e-20)
(2.71496e-06 5.66898e-07 -1.33539e-23)
(3.2478e-06 6.77954e-07 7.84593e-20)
(3.79168e-06 8.09877e-07 7.76065e-20)
(4.30887e-06 9.70866e-07 -3.81642e-23)
(4.77234e-06 1.14593e-06 -7.57738e-20)
(5.16214e-06 1.32418e-06 0)
(5.4575e-06 1.49198e-06 1.47184e-19)
(5.68266e-06 1.5962e-06 -1.45154e-19)
(5.81651e-06 1.60875e-06 0)
(5.65572e-06 1.54553e-06 1.40123e-19)
(5.05793e-06 1.47044e-06 -2.75611e-19)
(4.62862e-06 1.25317e-06 1.3546e-19)
(3.98796e-06 1.60292e-06 -1.32634e-19)
(7.62706e-07 2.80832e-06 1.0011e-19)
(-1.31197e-07 1.63632e-06 0)
(-2.21065e-07 1.45286e-06 0)
(-1.85883e-07 5.63886e-07 -2.07603e-20)
(-2.55204e-09 -1.34306e-08 2.07089e-20)
(2.46026e-07 -3.60778e-07 0)
(5.55218e-07 -5.60451e-07 -4.11682e-20)
(8.97552e-07 -6.23849e-07 8.19579e-20)
(1.23979e-06 -5.57516e-07 -4.07585e-20)
(1.58646e-06 -3.91418e-07 0)
(2.01081e-06 -1.89999e-07 0)
(2.53362e-06 3.68707e-08 0)
(3.10453e-06 3.37138e-07 -7.92817e-20)
(3.70766e-06 7.16217e-07 7.85426e-20)
(4.32964e-06 1.15581e-06 7.77504e-20)
(4.93962e-06 1.64002e-06 -7.69219e-20)
(5.5311e-06 2.13189e-06 0)
(6.10429e-06 2.57761e-06 1.49929e-19)
(6.63067e-06 2.9214e-06 -1.48059e-19)
(7.11375e-06 3.08237e-06 0)
(7.40961e-06 3.05584e-06 0)
(7.25562e-06 2.82549e-06 0)
(6.56399e-06 2.44002e-06 0)
(5.8294e-06 1.81363e-06 0)
(4.85484e-06 1.56063e-06 -1.33567e-19)
(9.21254e-07 2.72626e-06 1.21758e-22)
(-1.29261e-07 1.91344e-06 0)
(-2.42028e-07 1.36445e-06 0)
(-1.94008e-07 1.71493e-07 -2.06113e-20)
(-8.02837e-09 -5.92106e-07 2.05634e-20)
(2.41086e-07 -1.05641e-06 0)
(5.51799e-07 -1.3151e-06 -4.09069e-20)
(8.9967e-07 -1.39851e-06 8.14659e-20)
(1.26597e-06 -1.33064e-06 -4.05298e-20)
(1.62284e-06 -1.11048e-06 0)
(1.98671e-06 -7.50949e-07 0)
(2.46273e-06 -3.10545e-07 0)
(3.05767e-06 2.19234e-07 -7.90253e-20)
(3.70176e-06 8.76707e-07 7.83318e-20)
(4.38538e-06 1.63837e-06 7.76027e-20)
(5.1073e-06 2.45378e-06 -7.6823e-20)
(5.86318e-06 3.25791e-06 0)
(6.63797e-06 3.95765e-06 1.4994e-19)
(7.40486e-06 4.44248e-06 -1.48173e-19)
(8.16755e-06 4.59327e-06 0)
(8.64382e-06 4.44358e-06 0)
(8.53778e-06 4.01537e-06 0)
(7.82386e-06 3.32754e-06 0)
(6.86775e-06 2.33881e-06 0)
(5.67093e-06 1.54148e-06 -1.34023e-19)
(1.10451e-06 2.66582e-06 1.0368e-19)
(-1.25455e-07 2.21013e-06 0)
(-2.67487e-07 1.27867e-06 0)
(-2.23232e-07 -1.96321e-07 -2.0403e-20)
(-5.22757e-08 -1.12826e-06 2.03585e-20)
(1.86112e-07 -1.69138e-06 0)
(4.85262e-07 -1.9891e-06 -4.05252e-20)
(8.21794e-07 -2.07208e-06 8.07322e-20)
(1.17833e-06 -1.97344e-06 -4.01797e-20)
(1.54119e-06 -1.70157e-06 8.00322e-20)
(1.90564e-06 -1.23346e-06 -7.95242e-20)
(2.33578e-06 -5.88759e-07 0)
(2.90488e-06 1.70353e-07 -7.85207e-20)
(3.59047e-06 1.08378e-06 -2.48141e-23)
(4.3403e-06 2.14299e-06 1.54414e-19)
(5.1537e-06 3.27851e-06 -7.64767e-20)
(6.04032e-06 4.37593e-06 0)
(6.98063e-06 5.31076e-06 1.49479e-19)
(7.95913e-06 5.9298e-06 -2.4933e-22)
(8.96189e-06 6.07635e-06 -3.24189e-22)
(9.64634e-06 5.77042e-06 -1.43756e-19)
(9.67685e-06 5.14529e-06 0)
(8.98701e-06 4.19637e-06 0)
(7.83918e-06 2.9101e-06 0)
(6.46107e-06 1.63388e-06 -1.34069e-19)
(1.30707e-06 2.66158e-06 1.04933e-19)
(-1.18965e-07 2.51555e-06 0)
(-2.84555e-07 1.20042e-06 0)
(-2.39454e-07 -5.368e-07 -2.01467e-20)
(-7.33287e-08 -1.6265e-06 2.01054e-20)
(1.69279e-07 -2.27812e-06 4.01504e-20)
(4.77429e-07 -2.60919e-06 -8.00599e-20)
(8.27197e-07 -2.68874e-06 7.98011e-20)
(1.20595e-06 -2.56168e-06 -3.97301e-20)
(1.60515e-06 -2.23218e-06 0)
(2.01161e-06 -1.67427e-06 7.87764e-20)
(2.43213e-06 -8.67398e-07 -7.82573e-20)
(2.98964e-06 1.20786e-07 -7.78095e-20)
(3.72172e-06 1.28236e-06 7.72039e-20)
(4.54618e-06 2.60453e-06 7.66073e-20)
(5.43881e-06 4.02345e-06 -7.59223e-20)
(6.41393e-06 5.40342e-06 0)
(7.47642e-06 6.57911e-06 1.48621e-19)
(8.6018e-06 7.36605e-06 -1.47057e-19)
(9.7502e-06 7.573e-06 0)
(1.06549e-05 7.12697e-06 1.42802e-19)
(1.088e-05 6.29681e-06 -1.41096e-19)
(1.01831e-05 5.12175e-06 0)
(8.83005e-06 3.60031e-06 0)
(7.267e-06 1.90594e-06 -1.3376e-19)
(1.53088e-06 2.7624e-06 1.75629e-22)
(-1.10982e-07 2.81458e-06 0)
(-2.88424e-07 1.11395e-06 0)
(-2.26196e-07 -8.77581e-07 -1.98522e-20)
(-3.88895e-08 -2.12735e-06 1.98138e-20)
(2.42566e-07 -2.87187e-06 0)
(6.05399e-07 -3.24398e-06 -3.94875e-20)
(1.02335e-06 -3.33068e-06 3.9337e-20)
(1.48456e-06 -3.1862e-06 0)
(1.98036e-06 -2.80789e-06 0)
(2.49109e-06 -2.16562e-06 0)
(3.00341e-06 -1.22268e-06 0)
(3.63063e-06 -1.50954e-08 -7.69289e-20)
(4.42589e-06 1.37462e-06 7.63646e-20)
(5.31821e-06 2.95184e-06 0)
(6.28771e-06 4.63883e-06 0)
(7.33727e-06 6.30401e-06 0)
(8.4669e-06 7.75945e-06 0)
(9.65734e-06 8.78965e-06 0)
(1.08373e-05 9.17833e-06 1.43902e-19)
(1.18854e-05 8.70857e-06 -1.42338e-19)
(1.22659e-05 7.63708e-06 0)
(1.15603e-05 6.26093e-06 0)
(1.00176e-05 4.52106e-06 0)
(8.18889e-06 2.4309e-06 -1.33148e-19)
(1.79911e-06 2.99805e-06 1.06523e-19)
(-1.01742e-07 3.0911e-06 0)
(-2.7416e-07 9.91784e-07 0)
(-1.7112e-07 -1.26617e-06 -1.95278e-20)
(7.1191e-08 -2.69684e-06 1.94922e-20)
(4.3805e-07 -3.55521e-06 0)
(9.2278e-07 -3.98856e-06 -3.88674e-20)
(1.49051e-06 -4.10829e-06 7.7496e-20)
(2.12803e-06 -3.96803e-06 -3.86066e-20)
(2.82129e-06 -3.56039e-06 0)
(3.54029e-06 -2.84768e-06 0)
(4.26074e-06 -1.7815e-06 7.6327e-20)
(5.01788e-06 -3.63371e-07 -1.5175e-19)
(5.91359e-06 1.25357e-06 7.53851e-20)
(6.93705e-06 3.08759e-06 7.49191e-20)
(8.01269e-06 5.07128e-06 -7.43221e-20)
(9.13745e-06 7.06666e-06 0)
(1.03124e-05 8.87927e-06 -1.45947e-19)
(1.15152e-05 1.02622e-05 1.44573e-19)
(1.26289e-05 1.09633e-05 0)
(1.35678e-05 1.07109e-05 0)
(1.40365e-05 9.4481e-06 0)
(1.3403e-05 7.80978e-06 1.36641e-19)
(1.15492e-05 5.83456e-06 -1.35069e-19)
(9.27202e-06 3.28446e-06 -1.3228e-19)
(2.11911e-06 3.36451e-06 1.06919e-19)
(-9.21211e-08 3.32994e-06 0)
(-2.41025e-07 8.04365e-07 0)
(-7.03816e-08 -1.75123e-06 0)
(2.69324e-07 -3.39581e-06 0)
(7.88852e-07 -4.38288e-06 0)
(1.4774e-06 -4.89928e-06 0)
(2.28913e-06 -5.08408e-06 0)
(3.20837e-06 -4.99018e-06 0)
(4.20778e-06 -4.59537e-06 -7.5771e-20)
(5.25833e-06 -3.83654e-06 7.53924e-20)
(6.32352e-06 -2.66953e-06 0)
(7.33248e-06 -1.07675e-06 0)
(8.43398e-06 8.18432e-07 0)
(9.68427e-06 2.95032e-06 0)
(1.09418e-05 5.27633e-06 0)
(1.21967e-05 7.66559e-06 0)
(1.34231e-05 9.92256e-06 0)
(1.45563e-05 1.1799e-05 -1.42776e-19)
(1.54924e-05 1.29938e-05 1.41443e-19)
(1.61466e-05 1.31734e-05 0)
(1.65159e-05 1.1964e-05 -1.37499e-19)
(1.58209e-05 9.88774e-06 1.36051e-19)
(1.34779e-05 7.60343e-06 0)
(1.05592e-05 4.50752e-06 0)
(2.52081e-06 3.88082e-06 0)
(-8.11418e-08 3.5128e-06 0)
(-1.79717e-07 5.14002e-07 0)
(1.00472e-07 -2.38956e-06 0)
(6.19306e-07 -4.29577e-06 0)
(1.37777e-06 -5.45896e-06 0)
(2.33774e-06 -6.10984e-06 0)
(3.46392e-06 -6.40071e-06 3.74206e-20)
(4.75391e-06 -6.37526e-06 -3.72818e-20)
(6.2016e-06 -6.00864e-06 -7.44439e-20)
(7.74559e-06 -5.23009e-06 7.40926e-20)
(9.28153e-06 -3.96984e-06 7.38997e-20)
(1.07395e-05 -2.19507e-06 -7.34789e-20)
(1.22422e-05 1.94027e-08 0)
(1.38237e-05 2.47301e-06 7.27653e-20)
(1.53659e-05 5.20209e-06 3.92544e-23)
(1.68217e-05 8.07883e-06 -7.17396e-20)
(1.81324e-05 1.0889e-05 0)
(1.9222e-05 1.33924e-05 -1.40976e-19)
(1.99382e-05 1.52312e-05 1.39728e-19)
(2.01372e-05 1.60461e-05 0)
(1.98661e-05 1.53699e-05 0)
(1.88261e-05 1.3017e-05 1.34077e-19)
(1.60803e-05 1.01328e-05 -1.32691e-19)
(1.23509e-05 6.32513e-06 0)
(3.1324e-06 4.68238e-06 0)
(-6.5603e-08 3.61298e-06 0)
(-7.53573e-08 6.45659e-08 0)
(3.70558e-07 -3.26478e-06 0)
(1.13094e-06 -5.50939e-06 0)
(2.1983e-06 -6.94276e-06 0)
(3.52684e-06 -7.80758e-06 0)
(5.10428e-06 -8.25449e-06 0)
(6.91347e-06 -8.3166e-06 0)
(8.91611e-06 -7.96471e-06 0)
(1.10699e-05 -7.15444e-06 0)
(1.32965e-05 -5.81817e-06 -7.25781e-20)
(1.5463e-05 -3.87348e-06 7.21874e-20)
(1.74935e-05 -1.33114e-06 0)
(1.95383e-05 1.52634e-06 0)
(2.15811e-05 4.73088e-06 0)
(2.33857e-05 8.19933e-06 0)
(2.48886e-05 1.17359e-05 0)
(2.59298e-05 1.50973e-05 0)
(2.63357e-05 1.77992e-05 0)
(2.60537e-05 1.94202e-05 0)
(2.49726e-05 1.9512e-05 0)
(2.31321e-05 1.75003e-05 -1.32573e-19)
(1.97053e-05 1.38791e-05 1.31272e-19)
(1.49766e-05 8.9956e-06 0)
(4.0915e-06 5.7984e-06 0)
(-4.37198e-08 3.59861e-06 0)
(8.06026e-08 -6.12023e-07 0)
(7.51587e-07 -4.4834e-06 0)
(1.81773e-06 -7.16394e-06 0)
(3.28785e-06 -8.95073e-06 3.60608e-20)
(5.12461e-06 -1.00924e-05 -3.59744e-20)
(7.29724e-06 -1.07436e-05 0)
(9.76253e-06 -1.09385e-05 0)
(1.24741e-05 -1.06296e-05 -7.16224e-20)
(1.53891e-05 -9.76324e-06 1.4275e-19)
(1.84473e-05 -8.30343e-06 1.08252e-22)
(2.15052e-05 -6.19424e-06 -7.08423e-20)
(2.43577e-05 -3.36593e-06 0)
(2.71608e-05 -9.79856e-09 0)
(2.99046e-05 3.76751e-06 6.99321e-20)
(3.22865e-05 7.94601e-06 -6.94564e-20)
(3.41838e-05 1.23674e-05 -1.38009e-19)
(3.52379e-05 1.6799e-05 5.48353e-23)
(3.53292e-05 2.07281e-05 1.35817e-19)
(3.45181e-05 2.35157e-05 1.34284e-19)
(3.26064e-05 2.45676e-05 -1.3312e-19)
(2.94386e-05 2.32951e-05 1.30964e-19)
(2.47541e-05 1.92628e-05 -1.29745e-19)
(1.86712e-05 1.27291e-05 0)
(5.44539e-06 7.311e-06 0)
(-1.91732e-08 3.44333e-06 0)
(2.79659e-07 -1.55691e-06 0)
(1.25741e-06 -6.10573e-06 0)
(2.73534e-06 -9.34686e-06 0)
(4.73281e-06 -1.15725e-05 0)
(7.21503e-06 -1.30746e-05 0)
(1.0112e-05 -1.40134e-05 0)
(1.33754e-05 -1.43959e-05 0)
(1.69633e-05 -1.41572e-05 -7.0154e-20)
(2.08228e-05 -1.32345e-05 6.98732e-20)
(2.48846e-05 -1.16e-05 0)
(2.90265e-05 -9.23397e-06 0)
(3.30077e-05 -6.04225e-06 0)
(3.68648e-05 -2.06413e-06 0)
(4.05971e-05 2.27331e-06 0)
(4.38731e-05 7.24267e-06 0)
(4.63939e-05 1.27252e-05 0)
(4.77449e-05 1.84292e-05 -1.34703e-19)
(4.77462e-05 2.38913e-05 1.33685e-19)
(4.63939e-05 2.82949e-05 0)
(4.34778e-05 3.07796e-05 0)
(3.87475e-05 3.04822e-05 0)
(3.20154e-05 2.66716e-05 0)
(2.37023e-05 1.81489e-05 0)
(7.41233e-06 9.54938e-06 0)
(1.95016e-08 3.11043e-06 0)
(5.4879e-07 -2.83762e-06 0)
(1.89688e-06 -8.20441e-06 0)
(3.90669e-06 -1.21427e-05 0)
(6.56834e-06 -1.49412e-05 0)
(9.81213e-06 -1.69335e-05 0)
(1.35779e-05 -1.82612e-05 0)
(1.78163e-05 -1.8896e-05 0)
(2.24747e-05 -1.87553e-05 0)
(2.74892e-05 -1.77738e-05 0)
(3.27814e-05 -1.59225e-05 6.83417e-20)
(3.8257e-05 -1.32071e-05 -6.80286e-20)
(4.37232e-05 -9.58865e-06 0)
(4.88031e-05 -4.92845e-06 0)
(5.37099e-05 2.69546e-07 6.73764e-20)
(5.83886e-05 6.08365e-06 -6.69651e-20)
(6.20251e-05 1.26383e-05 -1.33298e-19)
(6.40782e-05 1.9832e-05 1.32385e-19)
(6.43392e-05 2.70584e-05 0)
(6.26807e-05 3.35116e-05 0)
(5.88023e-05 3.81125e-05 0)
(5.23919e-05 3.94491e-05 1.27545e-19)
(4.27212e-05 3.63832e-05 -2.52343e-19)
(3.10425e-05 2.60739e-05 1.24781e-19)
(1.03967e-05 1.29528e-05 0)
(7.0386e-08 2.55822e-06 0)
(8.94945e-07 -4.55154e-06 0)
(2.70043e-06 -1.09156e-05 0)
(5.33635e-06 -1.56938e-05 0)
(8.77045e-06 -1.92271e-05 0)
(1.29216e-05 -2.18478e-05 0)
(1.77323e-05 -2.36709e-05 -3.36845e-20)
(2.31402e-05 -2.46408e-05 3.35886e-20)
(2.90807e-05 -2.46539e-05 -6.71515e-20)
(3.54835e-05 -2.36326e-05 6.69088e-20)
(4.22597e-05 -2.15391e-05 -6.68633e-20)
(4.9302e-05 -1.83727e-05 6.65721e-20)
(5.64292e-05 -1.41387e-05 0)
(6.32163e-05 -8.71569e-06 -6.62772e-20)
(6.97685e-05 -2.1852e-06 6.59185e-20)
(7.60234e-05 4.83837e-06 0)
(8.12713e-05 1.27362e-05 0)
(8.47222e-05 2.16805e-05 -1.30071e-19)
(8.59504e-05 3.11545e-05 -3.17645e-23)
(8.47747e-05 4.02409e-05 1.28288e-19)
(8.0473e-05 4.76112e-05 0)
(7.2241e-05 5.13292e-05 -1.2581e-19)
(5.89626e-05 4.94417e-05 1.24806e-19)
(4.2333e-05 3.74933e-05 0)
(1.4825e-05 1.83236e-05 -1.04857e-19)
(1.23845e-07 1.75665e-06 0)
(1.29223e-06 -6.74685e-06 0)
(3.64793e-06 -1.43089e-05 0)
(7.01743e-06 -2.01172e-05 0)
(1.13414e-05 -2.45498e-05 0)
(1.65484e-05 -2.79394e-05 0)
(2.25732e-05 -3.03853e-05 0)
(2.93453e-05 -3.18085e-05 0)
(3.67961e-05 -3.20816e-05 0)
(4.48493e-05 -3.11023e-05 0)
(5.34106e-05 -2.88086e-05 0)
(6.23577e-05 -2.51682e-05 0)
(7.1525e-05 -2.01737e-05 0)
(8.06014e-05 -1.3731e-05 0)
(8.91524e-05 -5.5889e-06 0)
(9.7332e-05 3.35892e-06 0)
(0.000104951 1.32717e-05 0)
(0.00011079 2.43363e-05 0)
(0.000114173 3.65563e-05 0)
(0.000114433 4.89075e-05 0)
(0.00011024 5.99563e-05 0)
(0.000100378 6.71872e-05 0)
(8.28906e-05 6.75306e-05 0)
(5.93178e-05 5.34024e-05 0)
(2.1691e-05 2.607e-05 0)
(1.85675e-07 6.84514e-07 7.34069e-21)
(1.74597e-06 -9.46652e-06 8.0827e-21)
(4.71466e-06 -1.84422e-05 -1.61492e-20)
(8.90891e-06 -2.54911e-05 3.22862e-20)
(1.42519e-05 -3.10082e-05 -3.22368e-20)
(2.06622e-05 -3.53421e-05 0)
(2.80592e-05 -3.85769e-05 3.21735e-20)
(3.63763e-05 -4.06087e-05 3.21527e-20)
(4.55545e-05 -4.12866e-05 -1.28177e-19)
(5.55245e-05 -4.04782e-05 6.39133e-20)
(6.61941e-05 -3.8079e-05 6.38472e-20)
(7.74372e-05 -3.4002e-05 -6.35947e-20)
(8.91101e-05 -2.81783e-05 -6.35218e-20)
(0.000100984 -2.05262e-05 1.26573e-19)
(0.000112346 -1.07048e-05 1.28694e-22)
(0.000123301 1.11566e-06 6.31141e-20)
(0.000133842 1.37521e-05 -1.25242e-19)
(0.000143051 2.75679e-05 -1.25052e-19)
(0.000149952 4.29598e-05 2.4881e-19)
(0.000153141 5.89558e-05 -1.23724e-19)
(0.000150795 7.40997e-05 0)
(0.000140418 8.5749e-05 1.22425e-19)
(0.000117569 9.00987e-05 -2.42859e-19)
(8.43794e-05 7.46122e-05 1.20423e-19)
(3.30075e-05 3.72001e-05 1.03991e-19)
(2.45115e-07 -6.58615e-07 0)
(2.22719e-06 -1.27395e-05 0)
(5.86164e-06 -2.33744e-05 0)
(1.097e-05 -3.18804e-05 0)
(1.74403e-05 -3.86943e-05 0)
(2.51689e-05 -4.41877e-05 0)
(3.40794e-05 -4.84282e-05 0)
(4.4118e-05 -5.12906e-05 0)
(5.52412e-05 -5.26037e-05 0)
(6.73976e-05 -5.22098e-05 0)
(8.05167e-05 -4.99675e-05 0)
(9.44991e-05 -4.574e-05 0)
(0.000109207 -3.93872e-05 0)
(0.000124453 -3.07999e-05 0)
(0.000139822 -1.97726e-05 0)
(0.000154373 -5.5803e-06 0)
(0.000168321 1.07668e-05 0)
(0.000182097 2.84179e-05 0)
(0.000193988 4.81503e-05 -1.21907e-19)
(0.000201906 6.94538e-05 1.21142e-19)
(0.000203483 9.09538e-05 0)
(0.000194717 0.000110014 0)
(0.000168182 0.000122262 0)
(0.000126799 0.000108259 0)
(5.95876e-05 5.60737e-05 0)
(2.97644e-07 -2.30767e-06 0)
(2.71596e-06 -1.66904e-05 0)
(7.0534e-06 -2.93063e-05 0)
(1.31335e-05 -3.9546e-05 0)
(2.07965e-05 -4.792e-05 0)
(2.99252e-05 -5.48186e-05 0)
(4.04499e-05 -6.02958e-05 0)
(5.23311e-05 -6.42088e-05 0)
(6.55432e-05 -6.63649e-05 0)
(8.00586e-05 -6.65737e-05 0)
(9.58344e-05 -6.4645e-05 -6.08467e-20)
(0.000112804 -6.03781e-05 6.06266e-20)
(0.000130861 -5.35524e-05 0)
(0.000149858 -4.39368e-05 0)
(0.000169571 -3.12945e-05 0)
(0.00018939 -1.50529e-05 0)
(0.000208808 5.62089e-06 0)
(0.000228468 2.91996e-05 0)
(0.000247305 5.48429e-05 0)
(0.000262883 8.41555e-05 0)
(0.00027283 0.000116208 0)
(0.000272474 0.000147996 -1.18655e-19)
(0.000252063 0.000174053 1.17853e-19)
(0.000212926 0.000170921 0)
(0.000145794 7.42392e-05 0)
(3.40592e-07 -4.00551e-06 0)
(3.1056e-06 -2.07598e-05 0)
(8.02786e-06 -3.54459e-05 0)
(1.49297e-05 -4.75484e-05 0)
(2.35956e-05 -5.76347e-05 0)
(3.3909e-05 -6.61296e-05 0)
(4.58102e-05 -7.31084e-05 0)
(5.92736e-05 -7.84393e-05 0)
(7.42952e-05 -8.19269e-05 0)
(9.0879e-05 -8.33649e-05 0)
(0.000109026 -8.25358e-05 0)
(0.000128726 -7.9201e-05 0)
(0.000149959 -7.30992e-05 0)
(0.000172679 -6.39458e-05 0)
(0.00019686 -5.14622e-05 0)
(0.000222442 -3.53507e-05 0)
(0.000248772 -1.49902e-05 0)
(0.000274981 9.96185e-06 0)
(0.000302222 3.90782e-05 0)
(0.000330935 7.31063e-05 0)
(0.000359357 0.000111826 0)
(0.000385608 0.000152547 0)
(0.000408105 0.000186764 0)
(0.000424599 0.000198864 0)
(0.000378494 0.000113453 0)
(3.56469e-07 -5.66271e-06 0)
(3.3412e-06 -2.47651e-05 0)
(8.65555e-06 -4.15327e-05 0)
(1.61145e-05 -5.55588e-05 0)
(2.5472e-05 -6.74508e-05 0)
(3.66036e-05 -7.76847e-05 0)
(4.94507e-05 -8.63894e-05 0)
(6.39968e-05 -9.34729e-05 0)
(8.02532e-05 -9.87632e-05 0)
(9.82468e-05 -0.000102065 0)
(0.000118011 -0.000103163 0)
(0.00013958 -0.000101821 0)
(0.000162987 -9.77746e-05 0)
(0.00018826 -9.07462e-05 0)
(0.000215415 -8.04581e-05 0)
(0.000244469 -6.66956e-05 0)
(0.000275343 -4.92625e-05 0)
(0.000308177 -2.74234e-05 0)
(0.000343187 -1.21197e-07 0)
(0.000380665 3.20893e-05 0)
(0.000420884 6.90063e-05 0)
(0.000463307 0.000109145 0)
(0.00050639 0.00014724 0)
(0.000545169 0.000172408 0)
(0.000555169 0.000174024 0)
(3.68004e-07 -7.46356e-06 0)
(3.53184e-06 -2.91515e-05 0)
(9.18046e-06 -4.81938e-05 0)
(1.71174e-05 -6.42876e-05 0)
(2.70752e-05 -7.80971e-05 0)
(3.89198e-05 -9.0158e-05 0)
(5.25895e-05 -0.000100654 0)
(6.80689e-05 -0.000109532 0)
(8.53747e-05 -0.000116646 0)
(0.000104545 -0.000121815 0)
(0.000125628 -0.000124833 0)
(0.000148684 -0.000125467 0)
(0.000173773 -0.000123453 0)
(0.000200961 -0.000118509 0)
(0.000230306 -0.000110344 0)
(0.000261858 -9.86687e-05 0)
(0.000295682 -8.32135e-05 0)
(0.00033195 -6.35917e-05 0)
(0.000370725 -3.95393e-05 0)
(0.000411929 -1.0657e-05 0)
(0.000455401 2.32058e-05 0)
(0.000500198 6.18362e-05 0)
(0.000543572 0.00010396 0)
(0.000578449 0.00014712 0)
(0.000585132 0.000195388 0)
(3.77881e-07 -9.34301e-06 0)
(3.67926e-06 -3.37657e-05 0)
(9.5992e-06 -5.52152e-05 0)
(1.79297e-05 -7.34916e-05 0)
(2.83873e-05 -8.93205e-05 0)
(4.08283e-05 -0.000103301 0)
(5.51838e-05 -0.000115675 0)
(7.14325e-05 -0.000126431 0)
(8.95876e-05 -0.000135454 0)
(0.000109685 -0.000142578 0)
(0.000131775 -0.000147612 0)
(0.000155919 -0.000150329 0)
(0.000182181 -0.000150471 0)
(0.000210627 -0.000147755 0)
(0.000241312 -0.000141876 0)
(0.000274271 -0.000132522 0)
(0.000309503 -0.000119365 0)
(0.000346979 -0.000102068 0)
(0.000386526 -8.0301e-05 0)
(0.000427691 -5.34774e-05 0)
(0.000469664 -2.07082e-05 0)
(0.000510917 1.92931e-05 0)
(0.000548199 6.84706e-05 0)
(0.000575222 0.00012994 0)
(0.000580106 0.000212592 0)
(3.84729e-07 -1.12832e-05 0)
(3.78991e-06 -3.85593e-05 0)
(9.9219e-06 -6.25236e-05 0)
(1.85647e-05 -8.30787e-05 0)
(2.94243e-05 -0.000101012 0)
(4.23476e-05 -0.000116987 0)
(5.72555e-05 -0.000131302 0)
(7.41159e-05 -0.000143991 0)
(9.29309e-05 -0.000154967 0)
(0.000113726 -0.000164085 0)
(0.00013654 -0.000171163 0)
(0.000161421 -0.000175984 0)
(0.000188417 -0.000178288 0)
(0.000217569 -0.000177784 0)
(0.0002489 -0.000174146 0)
(0.00028239 -0.000167017 0)
(0.000317951 -0.000155997 0)
(0.000355387 -0.000140613 0)
(0.000394309 -0.000120267 0)
(0.000434026 -9.40273e-05 0)
(0.000473448 -6.03827e-05 0)
(0.000510928 -1.69683e-05 0)
(0.000543754 3.97446e-05 0)
(0.000568017 0.000115232 0)
(0.000578275 0.000218496 0)
(3.87994e-07 -1.32676e-05 0)
(3.8646e-06 -4.34913e-05 0)
(1.01509e-05 -7.00599e-05 0)
(1.90281e-05 -9.2978e-05 0)
(3.01959e-05 -0.000113093 0)
(4.34927e-05 -0.000131128 0)
(5.88282e-05 -0.000147439 0)
(7.61563e-05 -0.000162102 0)
(9.54643e-05 -0.000175059 0)
(0.000116761 -0.000186182 0)
(0.000140067 -0.000195299 0)
(0.000165409 -0.000202195 0)
(0.000192809 -0.000206606 0)
(0.000222276 -0.000208221 0)
(0.000253791 -0.000206678 0)
(0.000287286 -0.000201556 0)
(0.000322608 -0.000192351 0)
(0.00035948 -0.000178428 0)
(0.000397439 -0.000158929 0)
(0.000435773 -0.000132585 0)
(0.000473485 -9.74576e-05 0)
(0.000509297 -5.06506e-05 0)
(0.000541706 1.18859e-05 0)
(0.000568991 9.56041e-05 0)
(0.000589983 0.000207751 0)
(3.87789e-07 -1.5278e-05 0)
(3.90438e-06 -4.85171e-05 0)
(1.02905e-05 -7.77588e-05 0)
(1.93287e-05 -0.000103108 0)
(3.07172e-05 -0.000125467 0)
(4.42875e-05 -0.000145616 0)
(5.99381e-05 -0.000163963 0)
(7.76084e-05 -0.000180624 0)
(9.72689e-05 -0.000195568 0)
(0.00011891 -0.000208684 0)
(0.000142532 -0.000219806 0)
(0.000168138 -0.000228717 0)
(0.000195725 -0.000235144 0)
(0.000225273 -0.000238752 0)
(0.000256734 -0.000239137 0)
(0.00029001 -0.00023581 0)
(0.000324929 -0.000228166 0)
(0.000361218 -0.000215429 0)
(0.000398468 -0.000196554 0)
(0.000436127 -0.000170067 0)
(0.000473534 -0.000133858 0)
(0.000510031 -8.49652e-05 0)
(0.000545163 -1.95093e-05 0)
(0.000578962 6.69844e-05 0)
(0.000612745 0.000179672 0)
(3.84433e-07 -1.72972e-05 0)
(3.91217e-06 -5.35938e-05 0)
(1.03479e-05 -8.55579e-05 0)
(1.94806e-05 -0.00011339 0)
(3.10106e-05 -0.000138043 0)
(4.47653e-05 -0.000160348 0)
(6.06331e-05 -0.00018076 0)
(7.85399e-05 -0.000199433 0)
(9.84401e-05 -0.000216361 0)
(0.000120307 -0.000231446 0)
(0.000144121 -0.000244527 0)
(0.000169867 -0.000255386 0)
(0.000197521 -0.000263737 0)
(0.000227045 -0.000269223 0)
(0.000258379 -0.000271403 0)
(0.000291423 -0.000269733 0)
(0.000326028 -0.000263534 0)
(0.000361984 -0.000251938 0)
(0.000399017 -0.000233809 0)
(0.00043682 -0.000207618 0)
(0.000475133 -0.000171307 0)
(0.000513909 -0.000122178 0)
(0.000553557 -5.69223e-05 0)
(0.000595224 2.7975e-05 0)
(0.000641349 0.000135683 0)
(3.78348e-07 -1.93095e-05 0)
(3.89181e-06 -5.86828e-05 0)
(1.03333e-05 -9.34014e-05 0)
(1.95016e-05 -0.000123756 0)
(3.1104e-05 -0.000150743 0)
(4.4966e-05 -0.000175238 0)
(6.09684e-05 -0.000197737 0)
(7.90258e-05 -0.000218432 0)
(9.90787e-05 -0.000237336 0)
(0.000121086 -0.000254366 0)
(0.000145013 -0.000269367 0)
(0.000170831 -0.000282116 0)
(0.000198505 -0.00029232 0)
(0.000227991 -0.000299605 0)
(0.000259233 -0.000303506 0)
(0.000292154 -0.000303446 0)
(0.000326657 -0.000298709 0)
(0.000362629 -0.000288397 0)
(0.00039996 -0.000271365 0)
(0.000438599 -0.000246156 0)
(0.00047865 -0.000210912 0)
(0.000520546 -0.000163353 0)
(0.000565279 -0.000100872 0)
(0.000614622 -2.0908e-05 0)
(0.000671376 7.83533e-05 0)
(3.69962e-07 -2.13019e-05 0)
(3.84792e-06 -6.37511e-05 0)
(1.02575e-05 -0.000101241 0)
(1.94118e-05 -0.000134147 0)
(3.10278e-05 -0.0001635 0)
(4.49326e-05 -0.000190212 0)
(6.1002e-05 -0.00021482 0)
(7.91418e-05 -0.000237544 0)
(9.92826e-05 -0.000258421 0)
(0.000121372 -0.000277381 0)
(0.000145367 -0.000294273 0)
(0.000171231 -0.000308877 0)
(0.000198925 -0.000320895 0)
(0.000228413 -0.000329946 0)
(0.000259656 -0.000335558 0)
(0.000292613 -0.000337146 0)
(0.000327256 -0.000333995 0)
(0.000363577 -0.000325226 0)
(0.000401628 -0.000309762 0)
(0.000441578 -0.00028629 0)
(0.000483815 -0.000253236 0)
(0.000529094 -0.000208784 0)
(0.000578721 -0.000151014 0)
(0.000634725 -7.82101e-05 0)
(0.000699912 1.05634e-05 0)
(3.59737e-07 -2.32638e-05 0)
(3.78496e-06 -6.87715e-05 0)
(1.01323e-05 -0.000109038 0)
(1.92313e-05 -0.000144512 0)
(3.08126e-05 -0.000176256 0)
(4.47074e-05 -0.000205211 0)
(6.07892e-05 -0.000231947 0)
(7.89587e-05 -0.000256713 0)
(9.91397e-05 -0.000279567 0)
(0.000121273 -0.000300451 0)
(0.000145313 -0.000319225 0)
(0.000171219 -0.000335673 0)
(0.00019896 -0.0003495 0)
(0.000228512 -0.000360331 0)
(0.000259861 -0.000367699 0)
(0.000293013 -0.000371038 0)
(0.000328008 -0.000369663 0)
(0.000364937 -0.000362757 0)
(0.000403989 -0.000349356 0)
(0.000445504 -0.000328335 0)
(0.00049006 -0.000298422 0)
(0.000538592 -0.000258252 0)
(0.000592523 -0.0002065 0)
(0.000653877 -0.000142145 0)
(0.00072528 -6.4873e-05 0)
(3.4824e-07 -2.51866e-05 0)
(3.70763e-06 -7.37223e-05 0)
(9.96848e-06 -0.000116759 0)
(1.89794e-05 -0.000154813 0)
(3.0487e-05 -0.000188968 0)
(4.4329e-05 -0.000220188 0)
(6.03798e-05 -0.000249071 0)
(7.85376e-05 -0.000275895 0)
(9.87232e-05 -0.000300736 0)
(0.000120875 -0.000323554 0)
(0.000144947 -0.000344219 0)
(0.000170903 -0.000362523 0)
(0.000198721 -0.000378185 0)
(0.000228395 -0.000390843 0)
(0.000259942 -0.000400055 0)
(0.000293412 -0.000405286 0)
(0.000328907 -0.000405911 0)
(0.000366603 -0.0004012 0)
(0.00040679 -0.000390322 0)
(0.000449924 -0.000372357 0)
(0.000496695 -0.000346324 0)
(0.000548108 -0.00031125 0)
(0.000605574 -0.0002663 0)
(0.000670967 -0.000210979 0)
(0.000746606 -0.000145423 0)
(3.35838e-07 -2.70642e-05 0)
(3.61964e-06 -7.85868e-05 0)
(9.77581e-06 -0.00012438 0)
(1.86729e-05 -0.000165018 0)
(3.00757e-05 -0.000201598 0)
(4.38306e-05 -0.000235103 0)
(5.98151e-05 -0.000266155 0)
(7.79277e-05 -0.000295056 0)
(9.80889e-05 -0.000321904 0)
(0.000120238 -0.000346675 0)
(0.000144332 -0.000369253 0)
(0.000170342 -0.000389446 0)
(0.000198258 -0.00040699 0)
(0.000228095 -0.000421549 0)
(0.000259897 -0.000432713 0)
(0.000293755 -0.000439998 0)
(0.000329822 -0.000442848 0)
(0.000368335 -0.000440636 0)
(0.000409655 -0.000432674 0)
(0.000454305 -0.000418238 0)
(0.000503018 -0.000396608 0)
(0.000556799 -0.000367137 0)
(0.000616969 -0.000329365 0)
(0.000685189 -0.00028318 0)
(0.000763425 -0.000229018 0)
(3.22775e-07 -2.88923e-05 0)
(3.52437e-06 -8.33528e-05 0)
(9.56218e-06 -0.00013188 0)
(1.83259e-05 -0.000175101 0)
(2.95993e-05 -0.000214118 0)
(4.32389e-05 -0.000249926 0)
(5.91273e-05 -0.000283168 0)
(7.71654e-05 -0.000314169 0)
(9.7276e-05 -0.000343047 0)
(0.000119401 -0.000369798 0)
(0.000143503 -0.000394322 0)
(0.000169561 -0.000416449 0)
(0.000197579 -0.000435937 0)
(0.000227589 -0.00045248 0)
(0.000259662 -0.000465712 0)
(0.000293919 -0.000475207 0)
(0.000330549 -0.000480487 0)
(0.000369834 -0.000481031 0)
(0.000412171 -0.00047629 0)
(0.000458109 -0.00046572 0)
(0.000508381 -0.000448821 0)
(0.00056394 -0.000425206 0)
(0.000625979 -0.000394697 0)
(0.000695932 -0.000357439 0)
(0.000775425 -0.000314051 0)
(3.09308e-07 -3.06678e-05 0)
(3.42422e-06 -8.80118e-05 0)
(9.33422e-06 -0.000139247 0)
(1.79493e-05 -0.000185043 0)
(2.90733e-05 -0.000226505 0)
(4.25737e-05 -0.000264631 0)
(5.83393e-05 -0.000300082 0)
(7.62755e-05 -0.000333205 0)
(9.63082e-05 -0.000364141 0)
(0.000118384 -0.000392903 0)
(0.00014247 -0.000419413 0)
(0.000168556 -0.000443522 0)
(0.000196656 -0.000465018 0)
(0.000226819 -0.00048363 0)
(0.000259133 -0.00049904 0)
(0.000293743 -0.000510883 0)
(0.000330861 -0.000518761 0)
(0.00037079 -0.000522255 0)
(0.00041394 -0.000520948 0)
(0.000460854 -0.000514448 0)
(0.000512233 -0.000502441 0)
(0.000568949 -0.000484739 0)
(0.000632052 -0.000461363 0)
(0.000702754 -0.00043263 0)
(0.000782379 -0.000399252 0)
(2.95707e-07 -3.23893e-05 0)
(3.32143e-06 -9.25579e-05 0)
(9.09651e-06 -0.000146469 0)
(1.75514e-05 -0.000194828 0)
(2.85091e-05 -0.000238736 0)
(4.18487e-05 -0.000279192 0)
(5.74665e-05 -0.00031687 0)
(7.52724e-05 -0.000352138 0)
(9.51969e-05 -0.000385157 0)
(0.000117191 -0.000415961 0)
(0.000141228 -0.000444495 0)
(0.000167304 -0.000470635 0)
(0.000195444 -0.000494199 0)
(0.000225707 -0.000514956 0)
(0.000258194 -0.000532635 0)
(0.000293063 -0.000546934 0)
(0.000330536 -0.000557533 0)
(0.00037092 -0.000564108 0)
(0.000414617 -0.000566354 0)
(0.000462145 -0.000564014 0)
(0.000514147 -0.000556917 0)
(0.0005714 -0.000545027 0)
(0.000634809 -0.000528505 0)
(0.000705382 -0.00050777 0)
(0.000784183 -0.000483571 0)
(2.82313e-07 -3.40559e-05 0)
(3.21746e-06 -9.69873e-05 0)
(8.8527e-06 -0.000153538 0)
(1.71375e-05 -0.000204444 0)
(2.7914e-05 -0.000250796 0)
(4.10727e-05 -0.000293588 0)
(5.65172e-05 -0.000333506 0)
(7.4163e-05 -0.000370936 0)
(9.39447e-05 -0.00040606 0)
(0.000115818 -0.000438935 0)
(0.00013976 -0.000469526 0)
(0.000165774 -0.000497738 0)
(0.00019389 -0.00052342 0)
(0.000224173 -0.00054638 0)
(0.000256733 -0.000566396 0)
(0.000291728 -0.000583224 0)
(0.000329382 -0.000596617 0)
(0.00036999 -0.000606335 0)
(0.000413933 -0.000612172 0)
(0.000461686 -0.000613979 0)
(0.000513824 -0.000611697 0)
(0.000571023 -0.000605403 0)
(0.000634044 -0.000595346 0)
(0.000703714 -0.000582005 0)
(0.000780874 -0.000566126 0)
(2.69292e-07 -3.56671e-05 0)
(3.11342e-06 -0.000101297 0)
(8.60463e-06 -0.000160448 0)
(1.67111e-05 -0.000213879 0)
(2.72923e-05 -0.000262666 0)
(4.025e-05 -0.000307795 0)
(5.54952e-05 -0.000349961 0)
(7.29484e-05 -0.000389566 0)
(9.25483e-05 -0.000426812 0)
(0.000114254 -0.000461777 0)
(0.000138047 -0.000494452 0)
(0.000163931 -0.000524765 0)
(0.000191942 -0.000552599 0)
(0.000222147 -0.000577799 0)
(0.000254653 -0.00060019 0)
(0.000289616 -0.000619583 0)
(0.000327249 -0.000635794 0)
(0.000367828 -0.000648658 0)