/*--------------------------------*- C++ -*----------------------------------*\
  =========                 |
  \\      /  F ield         | OpenFOAM: The Open Source CFD Toolbox
   \\    /   O peration     | Website:  https://openfoam.org
    \\  /    A nd           | Version:  13
     \\/     M anipulation  |
\*---------------------------------------------------------------------------*/
FoamFile
{
    format      ascii;
    class       volScalarField;
    location    "6";
    object      p;
}
// * * * * * * * * * * * * * * * * * * * * * * * * * * * * * * * * * * * * * //

dimensions      [0 2 -2 0 0 0 0];

internalField   nonuniform List<scalar> 
6440
(
129.1
129.1
129.1
129.1
129.101
129.101
129.102
129.103
129.104
129.105
129.106
129.108
129.109
129.111
129.114
129.116
129.118
129.121
129.122
129.124
129.125
129.126
129.126
129.125
129.124
129.099
129.099
129.099
129.1
129.1
129.1
129.101
129.102
129.103
129.104
129.105
129.107
129.109
129.111
129.113
129.116
129.118
129.121
129.122
129.123
129.124
129.123
129.122
129.122
129.121
129.097
129.097
129.097
129.098
129.098
129.098
129.098
129.099
129.099
129.1
129.101
129.103
129.105
129.107
129.109
129.112
129.115
129.117
129.118
129.119
129.119
129.118
129.116
129.115
129.115
129.094
129.094
129.094
129.094
129.093
129.093
129.093
129.093
129.093
129.094
129.095
129.096
129.098
129.1
129.103
129.106
129.109
129.111
129.112
129.112
129.111
129.11
129.108
129.107
129.108
129.089
129.088
129.088
129.087
129.086
129.086
129.085
129.085
129.085
129.085
129.085
129.086
129.088
129.09
129.093
129.096
129.099
129.102
129.103
129.103
129.102
129.1
129.098
129.096
129.098
129.08
129.08
129.079
129.077
129.076
129.075
129.074
129.073
129.073
129.073
129.073
129.073
129.074
129.076
129.079
129.083
129.086
129.089
129.091
129.092
129.09
129.088
129.085
129.084
129.086
129.068
129.067
129.066
129.064
129.062
129.061
129.06
129.059
129.058
129.057
129.056
129.056
129.057
129.059
129.061
129.065
129.069
129.073
129.075
129.076
129.075
129.073
129.07
129.069
129.072
129.051
129.05
129.048
129.046
129.044
129.043
129.041
129.04
129.038
129.037
129.036
129.035
129.035
129.036
129.039
129.042
129.046
129.05
129.054
129.055
129.055
129.053
129.051
129.05
129.055
129.03
129.029
129.027
129.024
129.022
129.02
129.018
129.016
129.015
129.013
129.011
129.009
129.008
129.008
129.01
129.014
129.018
129.022
129.026
129.029
129.03
129.029
129.028
129.028
129.035
129.004
129.002
129
128.998
128.995
128.993
128.99
128.988
128.985
128.983
128.98
128.977
128.975
128.975
128.976
128.978
128.982
128.986
128.991
128.995
128.998
129
128.999
129
129.011
128.972
128.971
128.969
128.966
128.963
128.96
128.957
128.953
128.95
128.946
128.942
128.939
128.935
128.933
128.933
128.935
128.938
128.942
128.948
128.955
128.96
128.965
128.966
128.967
128.984
128.936
128.934
128.931
128.928
128.925
128.921
128.917
128.912
128.907
128.902
128.897
128.891
128.886
128.882
128.88
128.881
128.884
128.889
128.897
128.907
128.917
128.925
128.928
128.929
128.952
128.893
128.891
128.889
128.885
128.88
128.875
128.869
128.862
128.855
128.847
128.84
128.832
128.824
128.818
128.815
128.815
128.818
128.825
128.836
128.851
128.867
128.881
128.886
128.888
128.92
128.845
128.843
128.839
128.834
128.828
128.821
128.812
128.802
128.791
128.779
128.768
128.757
128.747
128.738
128.734
128.733
128.738
128.748
128.763
128.784
128.808
128.831
128.841
128.844
128.891
128.791
128.788
128.784
128.777
128.768
128.758
128.744
128.729
128.712
128.695
128.68
128.665
128.651
128.64
128.633
128.633
128.639
128.653
128.674
128.704
128.74
128.774
128.793
128.804
128.871
128.732
128.728
128.722
128.712
128.7
128.684
128.664
128.64
128.617
128.593
128.572
128.552
128.533
128.518
128.509
128.509
128.518
128.537
128.568
128.61
128.663
128.716
128.752
128.776
128.875
128.666
128.662
128.653
128.64
128.621
128.599
128.569
128.537
128.503
128.472
128.442
128.415
128.388
128.367
128.355
128.356
128.369
128.398
128.445
128.508
128.588
128.671
128.738
128.791
128.93
128.596
128.589
128.577
128.558
128.534
128.5
128.461
128.415
128.371
128.327
128.288
128.247
128.209
128.179
128.165
128.168
128.191
128.239
128.31
128.412
128.532
128.667
128.787
128.896
129.08
128.519
128.51
128.494
128.47
128.435
128.391
128.337
128.278
128.218
128.159
128.1
128.041
127.987
127.948
127.933
127.943
127.984
128.059
128.175
128.325
128.512
128.717
128.926
129.125
129.371
128.438
128.427
128.406
128.374
128.329
128.271
128.2
128.121
128.038
127.954
127.869
127.787
127.715
127.668
127.654
127.677
127.742
127.856
128.02
128.235
128.493
128.784
129.094
129.429
129.777
128.357
128.342
128.316
128.276
128.219
128.145
128.054
127.951
127.841
127.725
127.609
127.494
127.398
127.338
127.323
127.357
127.448
127.599
127.813
128.088
128.413
128.775
129.168
129.617
130.188
128.278
128.261
128.229
128.18
128.111
128.019
127.904
127.771
127.624
127.466
127.3
127.14
127.004
126.919
126.893
126.932
127.044
127.235
127.505
127.846
128.24
128.664
129.108
129.574
130.084
128.204
128.184
128.147
128.089
128.005
127.894
127.753
127.584
127.39
127.176
126.949
126.726
126.541
126.427
126.391
126.438
126.578
126.814
127.144
127.55
128.004
128.472
128.935
129.393
129.833
128.14
128.117
128.074
128.005
127.908
127.775
127.603
127.393
127.143
126.857
126.546
126.241
125.993
125.846
125.802
125.863
126.039
126.327
126.719
127.19
127.698
128.203
128.682
129.126
129.538
128.089
128.062
128.011
127.933
127.819
127.664
127.46
127.203
126.888
126.515
126.1
125.692
125.368
125.188
125.142
125.228
125.447
125.792
126.248
126.781
127.339
127.875
128.368
128.82
129.212
128.055
128.026
127.967
127.876
127.748
127.569
127.332
127.025
126.64
126.168
125.629
125.095
124.691
124.487
124.449
124.57
124.841
125.245
125.762
126.35
126.949
127.512
128.026
128.479
128.87
128.043
128.01
127.944
127.845
127.699
127.498
127.227
126.873
126.416
125.84
125.164
124.506
124.023
123.815
123.798
123.962
124.287
124.743
125.307
125.931
126.555
127.139
127.666
128.129
128.513
128.053
128.016
127.944
127.834
127.677
127.455
127.154
126.757
126.236
125.566
124.774
123.995
123.473
123.291
123.298
123.494
123.857
124.346
124.929
125.558
126.186
126.778
127.313
127.77
128.152
128.088
128.047
127.966
127.85
127.681
127.443
127.119
126.688
126.12
125.392
124.515
123.682
123.166
123.016
123.039
123.232
123.595
124.082
124.648
125.255
125.868
126.451
126.974
127.425
127.791
128.135
128.097
128.01
127.886
127.71
127.462
127.121
126.674
126.095
125.35
124.472
123.655
123.187
123.007
123.012
123.167
123.498
123.951
124.476
125.043
125.621
126.173
126.67
127.095
127.443
128.194
128.162
128.07
127.939
127.761
127.51
127.168
126.721
126.162
125.471
124.679
123.947
123.467
123.241
123.195
123.29
123.56
123.954
124.423
124.934
125.455
125.955
126.408
126.8
127.114
128.236
128.224
128.136
128.002
127.825
127.586
127.259
126.834
126.319
125.73
125.061
124.388
123.901
123.632
123.521
123.56
123.764
124.091
124.49
124.928
125.374
125.805
126.202
126.542
126.816
128.273
128.265
128.19
128.057
127.893
127.677
127.387
127.011
126.549
126.024
125.437
124.846
124.39
124.109
123.968
123.961
124.095
124.344
124.663
125.018
125.379
125.731
126.056
126.335
126.552
128.269
128.257
128.195
128.081
127.934
127.764
127.532
127.217
126.81
126.339
125.832
125.345
124.959
124.698
124.528
124.459
124.518
124.686
124.923
125.189
125.46
125.725
125.969
126.171
126.325
128.215
128.18
128.118
128.03
127.934
127.816
127.665
127.442
127.133
126.758
126.356
125.967
125.644
125.369
125.141
125.005
124.995
125.087
125.24
125.414
125.594
125.764
125.921
126.048
126.134
128.12
128.048
127.965
127.91
127.864
127.829
127.78
127.686
127.52
127.278
126.979
126.665
126.35
126.029
125.746
125.566
125.499
125.515
125.584
125.669
125.756
125.836
125.906
125.956
125.979
128.031
127.92
127.795
127.732
127.755
127.811
127.874
127.914
127.89
127.776
127.574
127.299
126.977
126.625
126.326
126.123
125.994
125.926
125.914
125.921
125.923
125.922
125.911
125.891
125.851
127.973
127.831
127.653
127.569
127.625
127.77
127.937
128.089
128.181
128.176
128.054
127.834
127.507
127.155
126.858
126.618
126.421
126.291
126.211
126.142
126.07
125.995
125.919
125.835
125.743
127.951
127.789
127.577
127.462
127.516
127.713
127.968
128.211
128.398
128.487
128.447
128.247
127.933
127.582
127.269
127.001
126.768
126.585
126.436
126.299
126.167
126.039
125.912
125.785
125.647
127.962
127.784
127.555
127.43
127.478
127.683
127.986
128.294
128.556
128.721
128.724
128.53
128.21
127.874
127.542
127.234
126.962
126.736
126.548
126.378
126.215
126.056
125.898
125.733
125.565
128.012
127.824
127.584
127.431
127.475
127.691
128.027
128.388
128.684
128.868
128.864
128.639
128.303
127.949
127.609
127.292
127.019
126.794
126.6
126.418
126.239
126.057
125.872
125.685
125.488
128.102
127.906
127.647
127.442
127.428
127.603
127.916
128.277
128.571
128.746
128.728
128.517
128.208
127.887
127.579
127.293
127.042
126.825
126.628
126.435
126.239
126.041
125.84
125.632
125.418
128.188
127.974
127.653
127.361
127.248
127.335
127.589
127.94
128.255
128.439
128.448
128.296
128.061
127.794
127.522
127.265
127.032
126.82
126.617
126.416
126.214
126.008
125.796
125.58
125.35
128.168
127.927
127.533
127.172
127.015
127.069
127.283
127.595
127.896
128.089
128.138
128.055
127.879
127.657
127.421
127.193
126.978
126.773
126.572
126.373
126.171
125.964
125.75
125.523
125.288
128.019
127.755
127.341
126.961
126.81
126.854
127.044
127.307
127.572
127.759
127.834
127.794
127.666
127.489
127.294
127.096
126.9
126.706
126.514
126.32
126.121
125.915
125.698
125.471
125.229
127.814
127.563
127.168
126.781
126.676
126.713
126.887
127.113
127.329
127.494
127.572
127.555
127.463
127.325
127.164
126.991
126.813
126.632
126.449
126.262
126.067
125.863
125.648
125.42
125.18
127.661
127.456
127.115
126.748
126.659
126.691
126.854
127.036
127.193
127.321
127.38
127.365
127.292
127.18
127.042
126.89
126.727
126.559
126.385
126.203
126.013
125.813
125.601
125.377
125.138
127.601
127.459
127.199
126.874
126.753
126.797
126.93
127.048
127.149
127.228
127.25
127.225
127.159
127.06
126.938
126.8
126.65
126.492
126.325
126.149
125.964
125.768
125.562
125.342
125.11
127.626
127.541
127.367
127.122
126.973
126.994
127.072
127.13
127.175
127.194
127.174
127.131
127.061
126.967
126.854
126.725
126.585
126.434
126.273
126.102
125.923
125.733
125.532
125.321
125.095
127.677
127.646
127.546
127.396
127.277
127.258
127.271
127.263
127.235
127.192
127.136
127.073
126.993
126.898
126.789
126.666
126.532
126.386
126.231
126.066
125.892
125.708
125.515
125.31
125.093
127.682
127.686
127.653
127.597
127.557
127.533
127.47
127.377
127.279
127.188
127.11
127.033
126.944
126.846
126.738
126.62
126.49
126.349
126.199
126.04
125.871
125.694
125.507
125.31
125.101
127.637
127.646
127.672
127.702
127.74
127.701
127.573
127.42
127.282
127.172
127.088
126.999
126.903
126.804
126.697
126.582
126.456
126.321
126.176
126.022
125.859
125.688
125.507
125.317
125.117
127.601
127.6
127.654
127.734
127.783
127.722
127.578
127.405
127.26
127.151
127.06
126.962
126.864
126.765
126.661
126.549
126.428
126.298
126.158
126.009
125.852
125.686
125.511
125.328
125.133
127.589
127.572
127.592
127.649
127.667
127.641
127.524
127.369
127.227
127.113
127.018
126.921
126.826
126.729
126.627
126.519
126.402
126.277
126.142
125.998
125.846
125.685
125.515
125.336
125.148
127.609
127.54
127.484
127.508
127.536
127.538
127.447
127.315
127.187
127.077
126.977
126.883
126.79
126.694
126.595
126.489
126.376
126.255
126.125
125.986
125.839
125.682
125.516
125.341
125.158
127.652
127.523
127.434
127.407
127.448
127.459
127.38
127.266
127.149
127.043
126.945
126.852
126.759
126.664
126.565
126.461
126.351
126.233
126.107
125.972
125.829
125.676
125.514
125.342
125.164
127.676
127.526
127.433
127.394
127.422
127.413
127.34
127.24
127.131
127.026
126.927
126.832
126.737
126.641
126.541
126.437
126.328
126.213
126.089
125.958
125.818
125.668
125.51
125.343
125.169
127.7
127.583
127.491
127.465
127.462
127.415
127.341
127.242
127.134
127.027
126.925
126.825
126.728
126.628
126.526
126.421
126.311
126.196
126.075
125.946
125.809
125.664
125.51
125.348
125.179
127.746
127.684
127.606
127.589
127.541
127.459
127.374
127.269
127.157
127.046
126.938
126.834
126.731
126.628
126.523
126.415
126.304
126.189
126.068
125.941
125.807
125.666
125.517
125.361
125.199
127.807
127.789
127.744
127.72
127.629
127.523
127.421
127.308
127.192
127.077
126.965
126.855
126.748
126.64
126.531
126.42
126.307
126.191
126.071
125.946
125.816
125.679
125.535
125.386
125.231
127.864
127.866
127.862
127.824
127.697
127.584
127.469
127.351
127.232
127.114
126.997
126.884
126.772
126.661
126.549
126.436
126.322
126.205
126.086
125.962
125.835
125.702
125.565
125.422
125.276
127.902
127.909
127.929
127.877
127.736
127.627
127.508
127.387
127.267
127.147
127.029
126.913
126.8
126.686
126.573
126.459
126.344
126.227
126.109
125.988
125.863
125.735
125.603
125.469
125.329
127.919
127.925
127.944
127.888
127.746
127.641
127.527
127.409
127.29
127.171
127.053
126.938
126.823
126.71
126.596
126.483
126.368
126.253
126.136
126.018
125.897
125.773
125.647
125.517
125.385
127.918
127.925
127.931
127.866
127.742
127.636
127.527
127.413
127.297
127.18
127.066
126.952
126.839
126.727
126.615
126.504
126.392
126.278
126.164
126.048
125.931
125.812
125.69
125.566
125.438
127.912
127.922
127.92
127.838
127.73
127.62
127.51
127.4
127.288
127.176
127.065
126.955
126.845
126.736
126.627
126.519
126.41
126.3
126.188
126.076
125.962
125.846
125.729
125.609
125.488
127.902
127.918
127.915
127.807
127.704
127.594
127.483
127.376
127.269
127.161
127.055
126.948
126.843
126.737
126.633
126.528
126.422
126.316
126.208
126.099
125.989
125.877
125.763
125.649
125.531
127.891
127.906
127.892
127.77
127.67
127.561
127.453
127.348
127.244
127.141
127.039
126.937
126.836
126.735
126.634
126.533
126.431
126.329
126.224
126.119
126.013
125.905
125.796
125.684
125.572
127.879
127.891
127.856
127.738
127.637
127.531
127.425
127.321
127.221
127.122
127.024
126.926
126.829
126.732
126.635
126.538
126.44
126.341
126.24
126.139
126.036
125.933
125.827
125.721
125.613
127.867
127.879
127.818
127.716
127.612
127.507
127.403
127.301
127.203
127.107
127.013
126.92
126.826
126.733
126.639
126.545
126.451
126.355
126.258
126.161
126.062
125.963
125.862
125.76
125.658
127.854
127.867
127.783
127.699
127.595
127.49
127.389
127.288
127.192
127.098
127.008
126.917
126.828
126.738
126.647
126.556
126.465
126.373
126.28
126.186
126.091
125.996
125.9
125.803
125.705
127.843
127.855
127.751
127.679
127.58
127.478
127.379
127.281
127.186
127.095
127.006
126.92
126.833
126.746
126.658
126.571
126.482
126.393
126.303
126.213
126.123
126.032
125.941
125.848
125.756
127.844
127.844
127.727
127.659
127.566
127.469
127.372
127.277
127.184
127.095
127.009
126.924
126.84
126.756
126.671
126.586
126.501
126.415
126.329
126.242
126.155
126.068
125.981
125.894
125.805
127.851
127.833
127.714
127.642
127.553
127.459
127.367
127.274
127.184
127.096
127.011
126.929
126.847
126.766
126.684
126.602
126.52
126.437
126.353
126.27
126.187
126.104
126.021
125.936
125.853
127.855
127.819
127.707
127.626
127.54
127.45
127.36
127.271
127.183
127.097
127.015
126.934
126.855
126.776
126.696
126.617
126.537
126.457
126.377
126.297
126.217
126.137
126.056
125.977
125.896
127.85
127.799
127.697
127.611
127.526
127.44
127.353
127.267
127.182
127.099
127.018
126.939
126.862
126.785
126.708
126.631
126.554
126.476
126.399
126.322
126.245
126.168
126.091
126.014
125.938
127.834
127.768
127.679
127.593
127.511
127.428
127.345
127.263
127.181
127.1
127.022
126.944
126.869
126.794
126.719
126.644
126.569
126.494
126.42
126.345
126.271
126.197
126.123
126.05
125.976
127.8
127.727
127.651
127.571
127.493
127.416
127.337
127.258
127.179
127.102
127.025
126.95
126.876
126.803
126.73
126.657
126.584
126.512
126.44
126.368
126.296
126.225
126.154
126.083
126.014
127.75
127.68
127.616
127.544
127.474
127.402
127.328
127.253
127.178
127.102
127.028
126.955
126.883
126.811
126.74
126.669
126.599
126.529
126.459
126.39
126.321
126.252
126.184
126.117
126.049
127.692
127.632
127.578
127.516
127.452
127.386
127.318
127.247
127.175
127.103
127.03
126.96
126.889
126.819
126.75
126.681
126.613
126.545
126.478
126.411
126.344
126.278
126.213
126.148
126.084
127.634
127.585
127.54
127.485
127.429
127.369
127.306
127.239
127.171
127.101
127.032
126.963
126.895
126.827
126.759
126.693
126.626
126.561
126.495
126.431
126.367
126.304
126.24
126.179
126.117
127.578
127.539
127.501
127.454
127.405
127.35
127.292
127.23
127.165
127.099
127.032
126.966
126.899
126.833
126.768
126.703
126.639
126.575
126.512
126.45
126.388
126.328
126.268
126.208
126.149
127.527
127.495
127.464
127.423
127.38
127.331
127.277
127.219
127.158
127.095
127.031
126.967
126.903
126.839
126.776
126.713
126.651
126.589
126.528
126.468
126.409
126.351
126.293
126.236
126.179
127.479
127.453
127.427
127.392
127.354
127.31
127.261
127.207
127.149
127.09
127.028
126.967
126.905
126.844
126.783
126.722
126.662
126.603
126.544
126.486
126.429
126.373
126.318
126.263
126.209
127.435
127.414
127.393
127.361
127.328
127.288
127.243
127.192
127.139
127.082
127.024
126.965
126.907
126.848
126.789
126.731
126.673
126.615
126.559
126.503
126.448
126.394
126.341
126.288
126.235
127.394
127.377
127.359
127.331
127.301
127.264
127.223
127.176
127.126
127.073
127.018
126.962
126.906
126.85
126.794
126.737
126.682
126.626
126.572
126.518
126.466
126.413
126.362
126.31
126.26
127.357
127.342
127.326
127.301
127.274
127.239
127.201
127.157
127.11
127.061
127.01
126.957
126.904
126.85
126.796
126.743
126.689
126.636
126.583
126.532
126.481
126.43
126.38
126.331
126.282
127.322
127.309
127.294
127.271
127.246
127.214
127.178
127.137
127.094
127.047
126.999
126.95
126.899
126.848
126.797
126.746
126.694
126.643
126.593
126.543
126.494
126.445
126.397
126.348
126.301
127.29
127.278
127.264
127.242
127.219
127.188
127.154
127.116
127.076
127.032
126.987
126.941
126.893
126.845
126.796
126.747
126.698
126.649
126.601
126.552
126.505
126.457
126.41
126.364
126.318
127.261
127.249
127.237
127.216
127.193
127.164
127.132
127.096
127.058
127.017
126.975
126.931
126.886
126.84
126.794
126.747
126.7
126.653
126.607
126.56
126.514
126.468
126.422
126.377
126.332
127.235
127.224
127.212
127.192
127.17
127.142
127.112
127.078
127.042
127.003
126.963
126.922
126.879
126.836
126.792
126.747
126.702
126.657
126.612
126.567
126.522
126.477
126.433
126.389
126.345
127.213
127.203
127.192
127.171
127.15
127.124
127.095
127.062
127.028
126.992
126.953
126.914
126.874
126.832
126.79
126.747
126.703
126.66
126.616
126.573
126.529
126.486
126.443
126.399
126.357
127.195
127.185
127.175
127.155
127.135
127.11
127.082
127.051
127.018
126.983
126.946
126.908
126.869
126.829
126.789
126.747
126.705
126.663
126.621
126.578
126.536
126.494
126.452
126.41
126.368
127.181
127.172
127.162
127.143
127.124
127.099
127.072
127.042
127.01
126.977
126.941
126.905
126.867
126.828
126.789
126.748
126.708
126.667
126.625
126.584
126.543
126.502
126.461
126.42
126.379
127.171
127.162
127.154
127.135
127.116
127.092
127.066
127.037
127.005
126.973
126.938
126.903
126.866
126.828
126.79
126.75
126.71
126.67
126.63
126.59
126.549
126.509
126.469
126.429
126.389
127.167
127.157
127.149
127.13
127.111
127.087
127.061
127.033
127.002
126.97
126.936
126.901
126.865
126.828
126.791
126.752
126.713
126.674
126.634
126.595
126.555
126.516
126.476
126.437
126.398
127.166
127.155
127.146
127.127
127.107
127.084
127.058
127.029
126.999
126.967
126.934
126.9
126.865
126.829
126.791
126.754
126.715
126.677
126.638
126.599
126.56
126.521
126.482
126.443
126.405
127.167
127.156
127.147
127.126
127.105
127.081
127.055
127.026
126.996
126.965
126.932
126.898
126.864
126.828
126.791
126.754
126.717
126.678
126.64
126.602
126.563
126.525
126.486
126.448
126.41
127.176
127.16
127.152
127.129
127.105
127.08
127.052
127.023
126.993
126.962
126.93
126.896
126.862
126.827
126.791
126.754
126.717
126.679
126.641
126.603
126.565
126.527
126.489
126.451
126.414
127.214
127.179
127.162
127.134
127.106
127.079
127.05
127.021
126.991
126.96
126.928
126.895
126.861
126.826
126.79
126.753
126.717
126.679
126.642
126.604
126.566
126.528
126.49
126.452
126.416
127.29
127.21
127.168
127.136
127.107
127.078
127.05
127.02
126.99
126.959
126.927
126.894
126.86
126.825
126.789
126.753
126.716
126.679
126.642
126.604
126.566
126.528
126.49
126.453
126.417
131.107
131.106
131.104
131.103
131.104
131.104
131.104
131.102
131.102
131.102
131.106
131.118
131.14
131.168
131.2
131.229
131.249
131.248
131.227
131.192
131.157
131.134
131.13
131.135
131.139
131.102
131.095
131.094
131.097
131.103
131.107
131.105
131.095
131.078
131.06
131.049
131.051
131.068
131.096
131.129
131.162
131.19
131.203
131.194
131.168
131.138
131.122
131.12
131.127
131.133
131.11
131.097
131.09
131.088
131.085
131.073
131.046
131.008
130.965
130.925
130.9
130.892
130.901
130.923
130.955
130.995
131.039
131.079
131.106
131.117
131.117
131.115
131.117
131.122
131.125
131.14
131.122
131.105
131.083
131.051
131.003
130.941
130.873
130.807
130.748
130.703
130.675
130.665
130.674
130.702
130.748
130.809
130.876
130.944
131.006
131.058
131.096
131.116
131.119
131.117
131.18
131.162
131.132
131.083
131.014
130.929
130.834
130.737
130.645
130.561
130.489
130.435
130.405
130.401
130.425
130.474
130.546
130.634
130.733
130.837
130.94
131.031
131.093
131.112
131.106
131.214
131.197
131.154
131.079
130.979
130.864
130.741
130.616
130.494
130.379
130.274
130.188
130.132
130.112
130.128
130.181
130.265
130.374
130.501
130.64
130.782
130.92
131.036
131.095
131.095
131.24
131.223
131.171
131.078
130.956
130.818
130.673
130.522
130.367
130.212
130.065
129.936
129.843
129.798
129.802
129.855
129.953
130.088
130.25
130.426
130.606
130.781
130.94
131.055
131.08
131.259
131.244
131.188
131.087
130.951
130.8
130.637
130.463
130.276
130.079
129.881
129.7
129.56
129.481
129.465
129.512
129.622
129.786
129.987
130.207
130.426
130.631
130.815
130.966
131.033
131.273
131.258
131.208
131.109
130.972
130.814
130.64
130.449
130.237
130.004
129.758
129.523
129.334
129.218
129.177
129.21
129.325
129.513
129.749
130.008
130.264
130.498
130.696
130.856
130.947
131.278
131.266
131.229
131.143
131.014
130.857
130.682
130.486
130.262
130.007
129.729
129.456
129.227
129.083
129.031
129.05
129.156
129.345
129.594
129.874
130.154
130.409
130.621
130.779
130.869
131.279
131.271
131.246
131.18
131.068
130.924
130.759
130.569
130.349
130.091
129.805
129.513
129.262
129.096
129.044
129.056
129.144
129.314
129.556
129.838
130.125
130.388
130.605
130.759
130.842
131.281
131.271
131.253
131.21
131.128
131.009
130.861
130.687
130.484
130.247
129.978
129.694
129.436
129.242
129.15
129.153
129.229
129.389
129.623
129.902
130.189
130.45
130.662
130.806
130.884
131.286
131.27
131.252
131.228
131.181
131.1
130.982
130.831
130.648
130.435
130.191
129.93
129.684
129.488
129.374
129.353
129.415
129.562
129.786
130.056
130.336
130.591
130.795
130.926
131
131.29
131.271
131.255
131.24
131.22
131.176
131.097
130.982
130.825
130.636
130.418
130.184
129.958
129.77
129.651
129.618
129.67
129.809
130.023
130.282
130.548
130.79
130.981
131.106
131.172
131.289
131.27
131.258
131.251
131.244
131.223
131.174
131.092
130.973
130.818
130.636
130.437
130.24
130.072
129.96
129.923
129.971
130.103
130.304
130.544
130.788
131.009
131.184
131.3
131.366
131.287
131.271
131.264
131.262
131.261
131.252
131.219
131.155
131.059
130.938
130.799
130.645
130.486
130.349
130.263
130.232
130.274
130.398
130.584
130.797
131.012
131.206
131.358
131.466
131.529
131.284
131.278
131.278
131.278
131.276
131.269
131.243
131.184
131.091
130.981
130.869
130.76
130.653
130.552
130.494
130.479
130.519
130.633
130.801
130.992
131.181
131.348
131.476
131.565
131.617
131.271
131.274
131.277
131.281
131.288
131.293
131.272
131.209
131.117
131.012
130.904
130.802
130.712
130.639
130.6
130.608
130.664
130.777
130.934
131.111
131.282
131.427
131.533
131.6
131.632
131.237
131.25
131.266
131.281
131.294
131.301
131.279
131.219
131.129
131.024
130.917
130.816
130.728
130.659
130.624
130.635
130.701
130.817
130.972
131.142
131.307
131.446
131.545
131.601
131.617
131.158
131.183
131.216
131.229
131.23
131.221
131.192
131.135
131.057
130.966
130.868
130.772
130.686
130.621
130.59
130.604
130.669
130.784
130.939
131.113
131.282
131.427
131.53
131.591
131.608
130.9
131.026
131.077
131.082
131.076
131.066
131.039
130.989
130.921
130.839
130.747
130.654
130.57
130.507
130.482
130.504
130.576
130.696
130.855
131.034
131.213
131.37
131.49
131.566
131.596
130.558
130.753
130.845
130.881
130.888
130.878
130.85
130.801
130.735
130.655
130.564
130.469
130.383
130.317
130.288
130.305
130.377
130.501
130.666
130.857
131.054
131.237
131.388
131.493
131.542
130.211
130.438
130.572
130.639
130.659
130.65
130.622
130.574
130.508
130.427
130.334
130.24
130.15
130.078
130.035
130.034
130.083
130.184
130.332
130.517
130.726
130.941
131.138
131.288
131.356
129.877
130.114
130.265
130.349
130.382
130.38
130.354
130.305
130.235
130.15
130.055
129.955
129.859
129.775
129.712
129.684
129.698
129.757
129.861
130.007
130.193
130.411
130.641
130.845
130.958
129.534
129.771
129.931
130.027
130.071
130.075
130.049
129.997
129.924
129.834
129.731
129.622
129.51
129.403
129.31
129.24
129.203
129.201
129.237
129.308
129.423
129.587
129.791
130
130.103
129.183
129.418
129.581
129.681
129.73
129.735
129.706
129.65
129.57
129.471
129.357
129.226
129.09
128.949
128.81
128.681
128.572
128.484
128.416
128.372
128.356
128.383
128.461
128.588
128.705
128.82
129.05
129.21
129.31
129.357
129.361
129.328
129.264
129.174
129.06
128.922
128.768
128.593
128.406
128.206
127.999
127.789
127.577
127.361
127.133
126.896
126.654
126.412
126.185
125.91
128.449
128.672
128.825
128.919
128.961
128.958
128.916
128.84
128.733
128.597
128.434
128.24
128.021
127.774
127.496
127.187
126.845
126.466
126.033
125.532
124.93
124.217
123.351
122.403
121.255
128.077
128.286
128.428
128.511
128.542
128.528
128.473
128.38
128.252
128.089
127.89
127.654
127.376
127.054
126.68
126.245
125.736
125.137
124.412
123.506
122.334
120.798
118.596
115.688
110.249
127.708
127.899
128.025
128.092
128.108
128.077
128.004
127.89
127.735
127.54
127.301
127.008
126.664
126.253
125.766
125.18
124.47
123.597
122.489
121.05
119.054
116.317
111.852
106.556
88.8224
127.352
127.518
127.621
127.668
127.664
127.612
127.516
127.376
127.191
126.957
126.666
126.318
125.893
125.383
124.766
124.012
123.073
121.883
120.331
118.236
115.161
110.632
101.582
86.311
30.2504
127.016
127.15
127.225
127.246
127.217
127.141
127.018
126.848
126.626
126.348
126.007
125.587
125.08
124.463
123.707
122.772
121.593
120.075
118.06
115.315
111.287
105.263
94.7949
77.7635
48.9603
126.707
126.802
126.844
126.835
126.778
126.673
126.519
126.314
126.054
125.729
125.328
124.842
124.245
123.515
122.617
121.5
120.084
118.257
115.842
112.565
107.984
101.429
91.95
77.8578
60.7629
126.427
126.48
126.484
126.442
126.353
126.216
126.029
125.787
125.484
125.11
124.654
124.091
123.407
122.567
121.531
120.238
118.604
116.501
113.746
110.077
105.1
98.2731
88.9277
75.8881
59.216
126.182
126.188
126.152
126.073
125.95
125.779
125.557
125.277
124.932
124.509
123.99
123.362
122.59
121.646
120.48
119.029
117.199
114.857
111.821
107.824
102.52
95.4182
85.9475
73.3452
57.438
125.971
125.929
125.851
125.735
125.576
125.37
125.112
124.794
124.407
123.935
123.365
122.666
121.818
120.779
119.499
117.91
115.912
113.37
110.094
105.837
100.25
92.8962
83.285
70.8478
55.4256
125.789
125.701
125.583
125.429
125.235
124.995
124.702
124.348
123.921
123.406
122.782
122.03
121.112
119.992
118.618
116.915
114.782
112.08
108.619
104.136
98.2958
90.6459
80.697
67.8414
52.002
125.634
125.503
125.347
125.158
124.931
124.658
124.333
123.945
123.482
122.928
122.265
121.461
120.49
119.308
117.861
116.075
113.844
111.027
107.421
102.769
96.6934
88.7124
78.2773
64.4985
47.4413
125.499
125.332
125.141
124.921
124.663
124.362
124.007
123.59
123.098
122.514
121.814
120.978
119.967
118.744
117.252
115.417
113.131
110.248
106.554
101.771
95.4512
87.0956
75.9298
60.6868
41.6782
125.383
125.185
124.964
124.716
124.432
124.105
123.727
123.287
122.771
122.164
121.445
120.584
119.554
118.313
116.807
114.963
112.675
109.795
106.091
101.27
94.7155
85.91
73.1288
55.4276
31.4941
125.281
125.057
124.812
124.541
124.236
123.889
123.492
123.035
122.504
121.883
121.151
120.286
119.254
118.019
116.531
114.723
112.495
109.709
106.143
101.486
95.0589
86.1886
71.6974
51.0659
12.5035
125.19
124.946
124.682
124.393
124.072
123.71
123.301
122.833
122.294
121.669
120.939
120.079
119.064
117.859
116.421
114.691
112.586
109.986
106.711
102.502
96.8437
89.1076
76.5486
58.0436
6.49286
125.108
124.851
124.573
124.271
123.938
123.567
123.15
122.678
122.139
121.518
120.798
119.96
118.977
117.822
116.461
114.845
112.909
110.562
107.68
104.08
99.4837
93.5429
85.4189
75.4335
55.4202
125.036
124.769
124.483
124.172
123.832
123.457
123.037
122.567
122.033
121.425
120.726
119.918
118.981
117.893
116.627
115.148
113.409
111.349
108.886
105.921
102.315
97.9129
92.4971
86.0738
78.109
124.974
124.702
124.411
124.096
123.754
123.377
122.961
122.496
121.975
121.385
120.713
119.945
119.064
118.053
116.895
115.564
114.03
112.256
110.199
107.811
105.047
101.888
98.3815
94.8063
91.7683
124.923
124.65
124.358
124.043
123.702
123.329
122.918
122.464
121.959
121.392
120.754
120.031
119.212
118.285
117.238
116.056
114.722
113.215
111.517
109.615
107.508
105.228
102.873
100.684
99.0603
124.885
124.615
124.325
124.014
123.676
123.31
122.909
122.468
121.982
121.443
120.841
120.168
119.413
118.571
117.634
116.594
115.443
114.173
112.78
111.27
109.662
108.006
106.402
105.036
104.147
124.862
124.597
124.313
124.007
123.677
123.319
122.93
122.506
122.043
121.533
120.97
120.347
119.658
118.898
118.064
117.153
116.164
115.095
113.954
112.752
111.515
110.292
109.165
108.256
107.702
124.855
124.597
124.321
124.024
123.703
123.356
122.982
122.576
122.136
121.657
121.134
120.561
119.934
119.251
118.51
117.713
116.863
115.963
115.024
114.061
113.1