/*--------------------------------*- C++ -*----------------------------------*\
  =========                 |
  \\      /  F ield         | OpenFOAM: The Open Source CFD Toolbox
   \\    /   O peration     | Website:  https://openfoam.org
    \\  /    A nd           | Version:  13
     \\/     M anipulation  |
\*---------------------------------------------------------------------------*/
FoamFile
{
    format      ascii;
    class       volScalarField;
    location    "6";
    object      p;
}
// * * * * * * * * * * * * * * * * * * * * * * * * * * * * * * * * * * * * * //

dimensions      [0 2 -2 0 0 0 0];

internalField   nonuniform List<scalar> 
6440
(
0.000521435
0.000521402
0.000521326
0.000521212
0.000521062
0.000520886
0.0005207
0.000520516
0.000520349
0.000520216
0.000520133
0.000520111
0.00052016
0.000520284
0.000520486
0.000520755
0.000521081
0.00052145
0.00052185
0.000522269
0.000522705
0.00052316
0.000523627
0.000524116
0.000524565
0.000521636
0.000521601
0.000521521
0.000521398
0.000521234
0.00052104
0.000520822
0.000520592
0.000520367
0.000520161
0.000519995
0.000519882
0.000519837
0.000519872
0.000519994
0.00052021
0.000520522
0.000520932
0.000521441
0.000522039
0.000522718
0.000523474
0.000524276
0.000525103
0.000525867
0.00052195
0.000521905
0.00052181
0.000521663
0.000521468
0.00052123
0.000520962
0.000520671
0.000520373
0.000520084
0.000519825
0.000519614
0.000519472
0.000519418
0.00051947
0.000519645
0.000519958
0.000520424
0.000521037
0.000521794
0.000522682
0.000523682
0.000524746
0.000525807
0.000526736
0.000522379
0.00052232
0.000522205
0.000522029
0.000521795
0.000521512
0.000521188
0.000520832
0.000520459
0.000520089
0.000519742
0.000519443
0.000519216
0.000519084
0.000519077
0.000519221
0.000519532
0.000520029
0.000520718
0.00052159
0.000522631
0.000523811
0.000525072
0.000526319
0.000527383
0.000522937
0.000522865
0.000522728
0.000522522
0.000522248
0.000521915
0.000521535
0.000521118
0.000520676
0.000520231
0.000519803
0.000519421
0.000519115
0.000518911
0.00051884
0.00051893
0.00051921
0.000519712
0.000520439
0.000521383
0.000522525
0.000523842
0.000525271
0.000526689
0.000527893
0.000523637
0.000523551
0.000523393
0.000523157
0.000522845
0.000522466
0.000522031
0.000521551
0.000521044
0.000520526
0.000520026
0.000519568
0.000519182
0.000518898
0.00051875
0.000518772
0.000518997
0.000519454
0.000520181
0.000521159
0.000522374
0.000523802
0.000525381
0.000526965
0.000528315
0.00052448
0.000524381
0.000524203
0.000523936
0.000523587
0.000523163
0.000522677
0.000522142
0.000521574
0.000520992
0.00052042
0.000519883
0.000519413
0.000519042
0.000518806
0.000518743
0.000518892
0.000519285
0.000519959
0.000520942
0.000522203
0.000523725
0.000525445
0.000527197
0.000528697
0.000525463
0.000525353
0.000525155
0.000524859
0.000524474
0.000524008
0.000523473
0.000522886
0.000522261
0.000521615
0.000520972
0.00052036
0.000519806
0.000519344
0.000519012
0.000518851
0.000518903
0.00051921
0.000519812
0.000520765
0.000522048
0.000523646
0.000525498
0.000527418
0.000529074
0.000526582
0.000526461
0.000526245
0.000525923
0.000525503
0.000524998
0.00052442
0.000523782
0.0005231
0.000522392
0.000521682
0.000520994
0.000520359
0.000519807
0.000519376
0.000519107
0.000519049
0.00051925
0.00051976
0.00052065
0.000521931
0.000523588
0.000525562
0.000527658
0.000529473
0.000527827
0.000527698
0.000527468
0.000527127
0.000526679
0.000526137
0.000525515
0.000524827
0.00052409
0.000523322
0.000522545
0.000521786
0.000521071
0.000520431
0.000519901
0.000519523
0.000519345
0.000519424
0.000519821
0.000520623
0.00052187
0.000523563
0.000525652
0.000527914
0.000529898
0.000529187
0.000529052
0.000528811
0.000528453
0.000527984
0.000527411
0.000526751
0.000526019
0.000525232
0.000524407
0.000523566
0.000522737
0.000521945
0.00052122
0.000520595
0.000520107
0.000519805
0.000519751
0.000520019
0.000520708
0.000521877
0.000523574
0.000525762
0.000528194
0.000530349
0.000530649
0.000530511
0.000530263
0.000529893
0.000529408
0.000528815
0.000528127
0.00052736
0.00052653
0.000525656
0.000524756
0.000523857
0.000522987
0.000522181
0.000521463
0.000520865
0.000520441
0.000520252
0.000520378
0.000520911
0.000521969
0.000523626
0.000525883
0.000528476
0.000530806
0.000532197
0.000532059
0.00053181
0.000531437
0.000530946
0.000530344
0.000529644
0.000528858
0.000527999
0.000527087
0.000526137
0.000525171
0.000524223
0.000523323
0.000522503
0.000521797
0.000521252
0.000520926
0.000520899
0.000521274
0.000522173
0.000523719
0.000526008
0.000528738
0.000531231
0.000533811
0.000533679
0.000533435
0.000533069
0.000532585
0.000531994
0.000531296
0.000530513
0.000529644
0.00052871
0.000527725
0.000526703
0.000525674
0.000524676
0.000523745
0.000522921
0.000522245
0.000521774
0.000521582
0.000521777
0.000522505
0.000523918
0.000526103
0.00052892
0.000531534
0.000535472
0.00053535
0.000535118
0.000534767
0.000534304
0.000533748
0.000533081
0.000532315
0.000531464
0.000530537
0.000529541
0.000528488
0.000527392
0.000526292
0.000525241
0.000524277
0.00052345
0.000522816
0.000522446
0.000522445
0.000522958
0.000524159
0.000526176
0.000528911
0.000531539
0.000537152
0.000537042
0.000536832
0.000536513
0.000536095
0.000535564
0.000534928
0.000534197
0.000533379
0.00053248
0.000531509
0.000530475
0.000529388
0.000528253
0.000527079
0.000525949
0.00052494
0.000524105
0.00052352
0.000523283
0.000523524
0.000524371
0.000526053
0.000528459
0.000530972
0.00053883
0.000538738
0.00053856
0.000538284
0.000537904
0.000537423
0.000536847
0.00053618
0.000535427
0.00053459
0.000533675
0.000532686
0.000531626
0.000530502
0.000529323
0.00052808
0.000526866
0.00052579
0.000524921
0.000524372
0.000524207
0.000524472
0.000525429
0.000527242
0.000529542
0.000540482
0.000540414
0.000540271
0.00054004
0.000539719
0.000539311
0.000538819
0.000538246
0.000537594
0.000536863
0.000536052
0.000535162
0.000534189
0.000533133
0.000531997
0.000530772
0.000529418
0.000528092
0.000526849
0.000525783
0.000524767
0.000524054
0.000524021
0.000524921
0.000526887
0.000542086
0.000542042
0.000541939
0.000541761
0.000541512
0.000541192
0.000540804
0.00054035
0.000539829
0.00053924
0.00053858
0.000537845
0.000537028
0.00053612
0.000535109
0.000533989
0.000532723
0.000531192
0.000529544
0.000527745
0.000525726
0.000523754
0.000522237
0.000521477
0.000522665
0.00054362
0.000543599
0.000543533
0.00054341
0.000543232
0.000543002
0.00054272
0.000542387
0.000542005
0.000541569
0.000541075
0.000540518
0.000539888
0.000539171
0.000538349
0.000537395
0.000536278
0.000534881
0.000533012
0.000530644
0.000527763
0.000524361
0.000520501
0.000516357
0.000513705
0.000545073
0.000545067
0.000545027
0.000544939
0.000544806
0.000544628
0.000544407
0.000544144
0.000543836
0.000543482
0.000543075
0.000542608
0.000542068
0.000541439
0.000540695
0.000539801
0.000538701
0.000537319
0.000535483
0.000532861
0.000529684
0.000525537
0.000519795
0.00051067
0.000493854
0.000546486
0.000546485
0.00054645
0.00054637
0.000546244
0.000546074
0.000545862
0.000545606
0.000545304
0.000544954
0.000544549
0.000544081
0.000543534
0.00054289
0.00054212
0.000541188
0.000540035
0.000538579
0.000536703
0.000534249
0.000530981
0.000526698
0.000520778
0.000512096
0.000499415
0.000547863
0.000547865
0.000547833
0.000547755
0.00054763
0.00054746
0.000547246
0.000546986
0.000546678
0.000546318
0.000545901
0.000545415
0.000544847
0.000544176
0.000543374
0.000542403
0.000541211
0.000539726
0.000537852
0.000535468
0.000532413
0.000528492
0.000523385
0.000516742
0.000508634
0.000549207
0.000549211
0.000549182
0.000549105
0.000548982
0.000548814
0.000548599
0.000548338
0.000548028
0.000547665
0.000547243
0.000546752
0.000546179
0.000545504
0.000544701
0.000543738
0.000542569
0.00054114
0.000539381
0.00053721
0.000534535
0.000531255
0.000527284
0.000522663
0.000517822
0.000550517
0.000550523
0.000550497
0.000550425
0.000550306
0.000550141
0.000549932
0.000549676
0.000549372
0.000549016
0.000548603
0.000548124
0.000547567
0.000546915
0.000546147
0.000545238
0.000544153
0.000542854
0.000541298
0.000539442
0.000537249
0.000534702
0.000531844
0.000528846
0.000526123
0.000551794
0.000551803
0.000551781
0.000551713
0.000551601
0.000551445
0.000551244
0.000551
0.000550709
0.00055037
0.000549978
0.000549525
0.000549003
0.000548397
0.000547694
0.000546872
0.000545912
0.00054479
0.000543486
0.000541988
0.000540298
0.000538451
0.00053654
0.000534756
0.000533416
0.000553038
0.00055305
0.000553033
0.000552972
0.000552868
0.000552723
0.000552536
0.000552308
0.000552038
0.000551724
0.000551362
0.000550948
0.000550475
0.000549934
0.000549314
0.000548604
0.000547793
0.000546871
0.000545836
0.000544696
0.000543479
0.000542241
0.000541089
0.000540189
0.000539773
0.00055425
0.000554265
0.000554253
0.0005542
0.000554107
0.000553976
0.000553806
0.000553599
0.000553355
0.000553072
0.00055275
0.000552384
0.000551972
0.000551507
0.000550984
0.000550398
0.000549746
0.00054903
0.000548258
0.000547452
0.00054665
0.000545918
0.000545353
0.00054509
0.000545297
0.000555429
0.000555447
0.000555442
0.000555398
0.000555318
0.000555202
0.000555053
0.000554871
0.000554657
0.000554411
0.000554133
0.000553822
0.000553477
0.000553095
0.000552675
0.000552218
0.000551726
0.000551208
0.000550681
0.000550171
0.000549722
0.000549395
0.000549275
0.000549468
0.000550095
0.000556575
0.000556597
0.000556598
0.000556564
0.000556498
0.0005564
0.000556273
0.000556119
0.000555938
0.000555733
0.000555503
0.000555251
0.000554977
0.000554681
0.000554365
0.000554034
0.000553695
0.000553361
0.000553052
0.000552797
0.000552638
0.000552631
0.000552844
0.00055336
0.000554266
0.000557687
0.000557713
0.000557721
0.000557698
0.000557646
0.000557568
0.000557465
0.00055734
0.000557195
0.000557031
0.000556853
0.000556661
0.000556458
0.000556247
0.000556033
0.000555821
0.000555624
0.000555455
0.000555335
0.000555294
0.00055537
0.000555609
0.000556069
0.000556811
0.0005579
0.000558765
0.000558794
0.000558809
0.000558797
0.000558761
0.000558703
0.000558625
0.00055853
0.000558421
0.000558301
0.000558173
0.000558041
0.000557908
0.000557779
0.00055766
0.000557559
0.000557489
0.000557464
0.000557506
0.000557641
0.000557903
0.000558331
0.00055897
0.000559867
0.00056107
0.000559807
0.000559839
0.000559862
0.000559861
0.000559841
0.000559803
0.000559751
0.000559686
0.000559614
0.000559536
0.000559458
0.000559383
0.000559317
0.000559264
0.000559233
0.000559232
0.000559273
0.000559373
0.000559549
0.000559827
0.000560234
0.000560804
0.000561571
0.000562571
0.00056384
0.000560812
0.000560848
0.000560878
0.000560889
0.000560884
0.000560867
0.000560839
0.000560805
0.000560768
0.000560731
0.000560701
0.000560681
0.000560676
0.000560694
0.000560742
0.000560829
0.000560967
0.00056117
0.000561457
0.000561849
0.000562368
0.000563042
0.000563898
0.000564963
0.000566262
0.000561781
0.00056182
0.000561857
0.000561879
0.000561889
0.000561891
0.000561888
0.000561883
0.00056188
0.000561883
0.000561897
0.000561927
0.000561979
0.000562061
0.000562178
0.000562342
0.000562562
0.000562852
0.000563229
0.000563709
0.000564312
0.00056506
0.000565975
0.000567076
0.000568382
0.000562711
0.000562754
0.000562797
0.00056283
0.000562855
0.000562876
0.000562896
0.000562918
0.000562947
0.000562986
0.000563042
0.000563118
0.000563222
0.000563359
0.000563537
0.000563766
0.000564055
0.000564416
0.000564863
0.000565411
0.000566077
0.000566876
0.000567826
0.000568943
0.000570237
0.000563603
0.000563649
0.000563698
0.000563741
0.00056378
0.000563819
0.000563861
0.000563909
0.000563967
0.00056404
0.000564133
0.000564251
0.000564399
0.000564586
0.000564816
0.0005651
0.000565445
0.000565863
0.000566365
0.000566964
0.000567673
0.000568505
0.000569473
0.000570589
0.000571861
0.000564456
0.000564505
0.00056456
0.000564612
0.000564664
0.000564719
0.000564781
0.000564853
0.000564938
0.000565042
0.000565168
0.000565323
0.000565511
0.000565739
0.000566014
0.000566343
0.000566734
0.000567196
0.00056774
0.000568375
0.000569113
0.000569963
0.000570936
0.00057204
0.00057328
0.00056527
0.000565321
0.000565381
0.000565442
0.000565506
0.000565577
0.000565657
0.00056575
0.00056586
0.00056599
0.000566146
0.000566333
0.000566555
0.000566819
0.00056713
0.000567496
0.000567923
0.000568419
0.000568993
0.000569653
0.000570407
0.000571265
0.000572232
0.000573315
0.000574518
0.000566045
0.000566098
0.000566162
0.000566231
0.000566306
0.00056639
0.000566487
0.000566599
0.000566731
0.000566885
0.000567067
0.000567281
0.000567532
0.000567825
0.000568166
0.000568561
0.000569016
0.000569537
0.000570131
0.000570806
0.000571568
0.000572423
0.000573378
0.000574434
0.000575596
0.00056678
0.000566835
0.000566904
0.000566979
0.000567063
0.00056716
0.000567272
0.000567401
0.000567552
0.000567727
0.000567931
0.000568168
0.000568443
0.00056876
0.000569125
0.000569542
0.000570017
0.000570555
0.000571162
0.000571844
0.000572606
0.000573453
0.000574388
0.000575414
0.000576532
0.000567477
0.000567533
0.000567605
0.000567686
0.000567779
0.000567887
0.000568011
0.000568156
0.000568322
0.000568515
0.000568738
0.000568995
0.000569289
0.000569625
0.000570008
0.000570442
0.00057093
0.000571479
0.000572093
0.000572776
0.000573531
0.000574364
0.000575276
0.000576269
0.000577342
0.000568135
0.000568192
0.000568267
0.000568353
0.000568454
0.000568571
0.000568707
0.000568863
0.000569044
0.000569252
0.00056949
0.000569763
0.000570072
0.000570423
0.000570819
0.000571264
0.000571762
0.000572316
0.00057293
0.000573609
0.000574354
0.000575168
0.000576054
0.000577011
0.00057804
0.000568756
0.000568813
0.00056889
0.000568981
0.000569088
0.000569213
0.000569358
0.000569525
0.000569718
0.000569938
0.000570189
0.000570473
0.000570795
0.000571157
0.000571562
0.000572014
0.000572516
0.000573071
0.000573682
0.000574351
0.000575082
0.000575876
0.000576733
0.000577654
0.000578638
0.000569339
0.000569397
0.000569476
0.00056957
0.000569682
0.000569813
0.000569966
0.000570143
0.000570345
0.000570575
0.000570835
0.000571129
0.00057146
0.000571829
0.000572239
0.000572695
0.000573197
0.000573749
0.000574353
0.000575011
0.000575725
0.000576495
0.000577323
0.000578207
0.000579147
0.000569886
0.000569944
0.000570024
0.000570121
0.000570237
0.000570374
0.000570534
0.000570717
0.000570926
0.000571164
0.000571432
0.000571733
0.000572069
0.000572442
0.000572856
0.000573311
0.000573811
0.000574357
0.000574951
0.000575595
0.000576289
0.000577035
0.000577832
0.00057868
0.000579577
0.000570398
0.000570456
0.000570537
0.000570636
0.000570755
0.000570896
0.000571061
0.00057125
0.000571465
0.000571708
0.000571981
0.000572287
0.000572626
0.000573001
0.000573414
0.000573867
0.000574362
0.0005749
0.000575482
0.000576109
0.000576783
0.000577503
0.000578269
0.000579081
0.000579936
0.000570876
0.000570933
0.000571014
0.000571115
0.000571236
0.000571381
0.000571549
0.000571742
0.000571961
0.000572209
0.000572485
0.000572793
0.000573134
0.000573508
0.000573919
0.000574368
0.000574855
0.000575382
0.000575951
0.000576561
0.000577213
0.000577906
0.000578642
0.000579418
0.000580232
0.000571321
0.000571377
0.000571458
0.00057156
0.000571683
0.00057183
0.000572
0.000572196
0.000572418
0.000572668
0.000572946
0.000573255
0.000573594
0.000573967
0.000574374
0.000574816
0.000575294
0.000575809
0.000576363
0.000576954
0.000577584
0.000578251
0.000578956
0.000579697
0.000580472
0.000571734
0.000571789
0.00057187
0.000571972
0.000572096
0.000572244
0.000572416
0.000572614
0.000572837
0.000573088
0.000573366
0.000573674
0.000574012
0.00057438
0.000574781
0.000575216
0.000575684
0.000576186
0.000576723
0.000577295
0.000577902
0.000578544
0.000579218
0.000579925
0.000580663
0.000572116
0.000572171
0.000572251
0.000572352
0.000572477
0.000572625
0.000572799
0.000572997
0.000573221
0.000573471
0.000573748
0.000574054
0.000574388
0.000574752
0.000575146
0.000575571
0.000576027
0.000576516
0.000577036
0.000577589
0.000578173
0.000578788
0.000579434
0.000580108
0.000580809
0.00057247
0.000572523
0.000572602
0.000572703
0.000572827
0.000572976
0.000573149
0.000573347
0.00057357
0.000573819
0.000574094
0.000574397
0.000574726
0.000575084
0.00057547
0.000575885
0.000576329
0.000576803
0.000577307
0.00057784
0.000578401
0.000578991
0.000579607
0.00058025
0.000580916
0.000572796
0.000572848
0.000572925
0.000573025
0.000573149
0.000573296
0.000573469
0.000573666
0.000573888
0.000574135
0.000574407
0.000574705
0.000575029
0.000575379
0.000575757
0.000576161
0.000576593
0.000577052
0.000577538
0.000578051
0.00057859
0.000579155
0.000579744
0.000580355
0.000580988
0.000573095
0.000573145
0.000573221
0.00057332
0.000573442
0.000573589
0.00057376
0.000573956
0.000574175
0.000574419
0.000574688
0.000574981
0.000575299
0.000575641
0.00057601
0.000576403
0.000576822
0.000577266
0.000577734
0.000578228
0.000578745
0.000579285
0.000579847
0.000580429
0.00058103
0.000573369
0.000573418
0.000573492
0.000573589
0.00057371
0.000573855
0.000574025
0.000574218
0.000574435
0.000574675
0.000574939
0.000575227
0.000575538
0.000575873
0.000576231
0.000576613
0.000577018
0.000577447
0.000577899
0.000578373
0.000578868
0.000579384
0.00057992
0.000580474
0.000581045
0.000573619
0.000573666
0.000573739
0.000573834
0.000573954
0.000574097
0.000574264
0.000574455
0.000574668
0.000574905
0.000575164
0.000575445
0.000575749
0.000576075
0.000576424
0.000576794
0.000577186
0.000577599
0.000578034
0.000578489
0.000578963
0.000579457
0.000579968
0.000580495
0.000581037
0.000573846
0.000573892
0.000573963
0.000574057
0.000574174
0.000574315
0.00057448
0.000574667
0.000574877
0.000575109
0.000575363
0.000575638
0.000575934
0.000576252
0.00057659
0.000576948
0.000577327
0.000577726
0.000578143
0.00057858
0.000579034
0.000579505
0.000579992
0.000580493
0.000581008
0.000574053
0.000574097
0.000574166
0.000574258
0.000574373
0.000574512
0.000574673
0.000574857
0.000575063
0.000575291
0.000575539
0.000575807
0.000576096
0.000576404
0.000576732
0.000577079
0.000577444
0.000577828
0.00057823
0.000578648
0.000579082
0.000579532
0.000579996
0.000580473
0.000580961
0.000574239
0.000574282
0.000574349
0.000574439
0.000574552
0.000574688
0.000574846
0.000575027
0.000575229
0.000575451
0.000575694
0.000575955
0.000576236
0.000576535
0.000576853
0.000577188
0.00057754
0.000577909
0.000578295
0.000578696
0.000579111
0.00057954
0.000579982
0.000580435
0.000580899
0.000574407
0.000574448
0.000574514
0.000574601
0.000574712
0.000574845
0.000575001
0.000575177
0.000575375
0.000575592
0.000575828
0.000576083
0.000576356
0.000576646
0.000576953
0.000577277
0.000577617
0.000577972
0.000578342
0.000578726
0.000579123
0.000579532
0.000579953
0.000580384
0.000580823
0.000574558
0.000574597
0.000574661
0.000574746
0.000574854
0.000574985
0.000575137
0.00057531
0.000575503
0.000575715
0.000575945
0.000576193
0.000576458
0.000576739
0.000577036
0.000577349
0.000577676
0.000578017
0.000578372
0.00057874
0.000579119
0.00057951
0.000579911
0.00058032
0.000580737
0.000574692
0.00057473
0.000574792
0.000574875
0.000574981
0.000575109
0.000575258
0.000575427
0.000575615
0.000575822
0.000576046
0.000576287
0.000576544
0.000576816
0.000577103
0.000577405
0.00057772
0.000578048
0.000578388
0.00057874
0.000579103
0.000579475
0.000579857
0.000580246
0.000580642
0.000574811
0.000574848
0.000574908
0.000574989
0.000575093
0.000575218
0.000575363
0.000575528
0.000575712
0.000575914
0.000576132
0.000576366
0.000576615
0.000576879
0.000577156
0.000577447
0.00057775
0.000578065
0.000578391
0.000578728
0.000579075
0.00057943
0.000579793
0.000580163
0.000580539
0.000574916
0.000574952
0.00057501
0.00057509
0.000575191
0.000575313
0.000575455
0.000575617
0.000575796
0.000575992
0.000576204
0.000576432
0.000576673
0.000576928
0.000577196
0.000577476
0.000577768
0.00057807
0.000578383
0.000578706
0.000579037
0.000579376
0.000579722
0.000580074
0.00058043
0.000575009
0.000575044
0.0005751
0.000575178
0.000575277
0.000575396
0.000575535
0.000575693
0.000575867
0.000576059
0.000576265
0.000576486
0.00057672
0.000576966
0.000577225
0.000577495
0.000577775
0.000578066
0.000578366
0.000578675
0.000578991
0.000579315
0.000579644
0.000579978
0.000580317
0.000575089
0.000575124
0.000575179
0.000575255
0.000575351
0.000575468
0.000575604
0.000575758
0.000575928
0.000576114
0.000576315
0.000576529
0.000576756
0.000576994
0.000577244
0.000577504
0.000577774
0.000578053
0.000578341
0.000578636
0.000578939
0.000579247
0.000579561
0.000579879
0.0005802
0.000575159
0.000575193
0.000575247
0.000575321
0.000575416
0.00057553
0.000575663
0.000575813
0.000575979
0.00057616
0.000576355
0.000576563
0.000576783
0.000577013
0.000577254
0.000577505
0.000577765
0.000578033
0.000578309
0.000578592
0.000578881
0.000579175
0.000579474
0.000579776
0.000580082
0.00057522
0.000575253
0.000575306
0.000575379
0.000575472
0.000575583
0.000575713
0.00057586
0.000576022
0.000576198
0.000576388
0.000576589
0.000576802
0.000577025
0.000577258
0.000577499
0.000577749
0.000578007
0.000578271
0.000578542
0.000578818
0.000579099
0.000579384
0.000579672
0.000579962
0.000575271
0.000575304
0.000575356
0.000575428
0.000575519
0.000575629
0.000575756
0.000575899
0.000576057
0.000576229
0.000576413
0.000576609
0.000576815
0.000577031
0.000577255
0.000577488
0.000577728
0.000577976
0.00057823
0.000578489
0.000578753
0.000579021
0.000579292
0.000579566
0.000579842
0.000575315
0.000575347
0.0005754
0.00057547
0.00057556
0.000575667
0.000575792
0.000575932
0.000576086
0.000576254
0.000576433
0.000576623
0.000576822
0.000577031
0.000577248
0.000577472
0.000577703
0.000577941
0.000578184
0.000578433
0.000578685
0.000578941
0.0005792
0.000579461
0.000579723
0.000575352
0.000575384
0.000575436
0.000575507
0.000575595
0.000575701
0.000575823
0.00057596
0.00057611
0.000576273
0.000576448
0.000576632
0.000576825
0.000577027
0.000577236
0.000577453
0.000577675
0.000577903
0.000578137
0.000578375
0.000578616
0.000578861
0.000579108
0.000579356
0.000579605
0.000575382
0.000575416
0.000575468
0.000575538
0.000575625
0.000575729
0.000575849
0.000575983
0.00057613
0.000576289
0.000576459
0.000576638
0.000576825
0.00057702
0.000577222
0.000577431
0.000577645
0.000577864
0.000578088
0.000578316
0.000578547
0.00057878
0.000579016
0.000579252
0.000579489
0.000575408
0.000575442
0.000575495
0.000575564
0.000575651
0.000575754
0.000575872
0.000576003
0.000576147
0.000576302
0.000576467
0.000576641
0.000576822
0.000577011
0.000577206
0.000577407
0.000577613
0.000577824
0.000578038
0.000578257
0.000578478
0.000578701
0.000578926
0.000579151
0.000579377
0.000575429
0.000575465
0.000575518
0.000575588
0.000575674
0.000575776
0.000575892
0.000576021
0.000576162
0.000576313
0.000576474
0.000576642
0.000576818
0.000577
0.000577189
0.000577382
0.00057758
0.000577783
0.000577989
0.000578198
0.000578409
0.000578623
0.000578837
0.000579052
0.000579267
0.000575447
0.000575485
0.00057554
0.00057561
0.000575696
0.000575797
0.000575911
0.000576038
0.000576176
0.000576323
0.000576479
0.000576643
0.000576813
0.00057699
0.000577171
0.000577358
0.000577548
0.000577743
0.00057794
0.00057814
0.000578343
0.000578547
0.000578752
0.000578957
0.000579162
0.000575463
0.000575502
0.000575559
0.000575631
0.000575717
0.000575817
0.00057593
0.000576055
0.00057619
0.000576334
0.000576486
0.000576644
0.000576809
0.000576979
0.000577154
0.000577334
0.000577517
0.000577703
0.000577893
0.000578085
0.000578278
0.000578473
0.000578669
0.000578865
0.00057906
0.000575477
0.000575519
0.000575578
0.000575651
0.000575738
0.000575838
0.00057595
0.000576073
0.000576205
0.000576345
0.000576493
0.000576647
0.000576806
0.00057697
0.000577139
0.000577311
0.000577487
0.000577666
0.000577848
0.000578031
0.000578216
0.000578403
0.00057859
0.000578777
0.000578963
0.00057549
0.000575536
0.000575598
0.000575673
0.000575761
0.000575861
0.000575972
0.000576093
0.000576222
0.000576359
0.000576502
0.000576651
0.000576805
0.000576963
0.000577125
0.000577291
0.00057746
0.000577631
0.000577805
0.00057798
0.000578157
0.000578336
0.000578514
0.000578693
0.000578871
0.000575504
0.000575554
0.00057562
0.000575698
0.000575787
0.000575887
0.000575997
0.000576116
0.000576243
0.000576376
0.000576515
0.000576659
0.000576807
0.000576959
0.000577114
0.000577273
0.000577434
0.000577598
0.000577764
0.000577932
0.000578102
0.000578272
0.000578442
0.000578613
0.000578783
0.000575519
0.000575574
0.000575645
0.000575726
0.000575817
0.000575917
0.000576027
0.000576144
0.000576268
0.000576397
0.000576531
0.00057667
0.000576812
0.000576958
0.000577107
0.000577258
0.000577412
0.000577569
0.000577727
0.000577888
0.000578049
0.000578212
0.000578375
0.000578538
0.0005787
0.000575536
0.000575598
0.000575675
0.000575759
0.000575852
0.000575954
0.000576063
0.000576178
0.000576298
0.000576424
0.000576553
0.000576686
0.000576822
0.000576961
0.000577103
0.000577247
0.000577394
0.000577543
0.000577694
0.000577846
0.000578
0.000578155
0.000578311
0.000578467
0.000578623
0.000575558
0.000575627
0.000575711
0.0005758
0.000575896
0.000575998
0.000576106
0.000576219
0.000576336
0.000576457
0.000576581
0.000576707
0.000576837
0.000576969
0.000577103
0.00057724
0.000577379
0.00057752
0.000577663
0.000577808
0.000577955
0.000578103
0.000578252
0.000578401
0.00057855
0.000575585
0.000575663
0.000575755
0.00057585
0.000575949
0.000576052
0.000576159
0.000576269
0.000576382
0.000576497
0.000576615
0.000576735
0.000576857
0.000576981
0.000577108
0.000577236
0.000577367
0.000577501
0.000577636
0.000577774
0.000577913
0.000578054
0.000578196
0.000578338
0.000578481
0.00057562
0.000575709
0.00057581
0.000575911
0.000576014
0.000576118
0.000576223
0.00057633
0.000576438
0.000576547
0.000576657
0.000576769
0.000576883
0.000576999
0.000577117
0.000577237
0.00057736
0.000577485
0.000577613
0.000577743
0.000577875
0.000578008
0.000578143
0.00057828
0.000578417
0.000575664
0.000575766
0.000575879
0.000575987
0.000576093
0.000576198
0.000576301
0.000576403
0.000576505
0.000576606
0.000576708
0.000576811
0.000576916
0.000577022
0.000577131
0.000577242
0.000577356
0.000577472
0.000577592
0.000577714
0.000577839
0.000577966
0.000578094
0.000578225
0.000578356
0.00057572
0.000575838
0.000575965
0.000576082
0.000576191
0.000576295
0.000576395
0.000576491
0.000576584
0.000576677
0.000576768
0.000576861
0.000576955
0.00057705
0.000577149
0.00057725
0.000577355
0.000577463
0.000577574
0.000577688
0.000577806
0.000577926
0.000578048
0.000578173
0.000578299
0.000575792
0.000575929
0.000576073
0.000576199
0.000576311
0.000576414
0.000576508
0.000576595
0.000576678
0.000576759
0.000576838
0.000576918
0.000577
0.000577084
0.000577171
0.000577262
0.000577357
0.000577455
0.000577558
0.000577664
0.000577774
0.000577888
0.000578004
0.000578123
0.000578244
0.000575884
0.000576045
0.000576209
0.000576344
0.000576459
0.000576557
0.000576643
0.000576718
0.000576788
0.000576854
0.000576919
0.000576984
0.000577052
0.000577123
0.000577197
0.000577277
0.000577361
0.00057745
0.000577543
0.000577642
0.000577744
0.000577851
0.000577962
0.000578075
0.000578192
0.000576004
0.000576194
0.00057638
0.000576525
0.00057664
0.00057673
0.000576803
0.000576862
0.000576914
0.000576962
0.000577009
0.000577057
0.000577108
0.000577165
0.000577226
0.000577293
0.000577366
0.000577445
0.000577529
0.00057762
0.000577715
0.000577815
0.00057792
0.000578029
0.000578141
0.000576159
0.000576385
0.000576599
0.000576752
0.000576862
0.000576938
0.000576992
0.000577029
0.000577058
0.000577083
0.000577108
0.000577136
0.000577169
0.000577209
0.000577255
0.000577309
0.000577371
0.000577439
0.000577515
0.000577597
0.000577685
0.000577779
0.000577879
0.000577983
0.000578091
0.000576364
0.000576635
0.000576879
0.000577037
0.000577134
0.000577188
0.000577213
0.00057722
0.000577219
0.000577215
0.000577214
0.000577219
0.000577232
0.000577254
0.000577284
0.000577325
0.000577374
0.000577432
0.000577499
0.000577573
0.000577654
0.000577742
0.000577836
0.000577936
0.000578041
0.00057664
0.000576966
0.000577242
0.000577396
0.000577467
0.000577485
0.000577469
0.000577436
0.000577396
0.000577357
0.000577326
0.000577304
0.000577294
0.000577296
0.000577311
0.000577337
0.000577374
0.000577422
0.000577479
0.000577546
0.000577621
0.000577704
0.000577793
0.000577889
0.00057799
0.000577022
0.000577412
0.000577717
0.00057785
0.000577874
0.000577835
0.000577761
0.000577673
0.000577585
0.000577505
0.000577438
0.000577387
0.000577352
0.000577334
0.000577331
0.000577343
0.000577369
0.000577407
0.000577456
0.000577516
0.000577585
0.000577662
0.000577747
0.000577839
0.000577938
0.000577573
0.000578029
0.000578346
0.000578424
0.000578366
0.00057824
0.000578086
0.000577928
0.00057778
0.000577651
0.000577545
0.000577462
0.000577402
0.000577363
0.000577343
0.000577342
0.000577357
0.000577386
0.000577427
0.000577481
0.000577544
0.000577617
0.000577699
0.000577788
0.000577883
0.000578409
0.000578903
0.000579185
0.000579148
0.000578952
0.000578699
0.000578436
0.000578189
0.000577971
0.000577787
0.000577638
0.000577522
0.000577437
0.000577379
0.000577344
0.00057733
0.000577335
0.000577356
0.000577392
0.00057744
0.000577499
0.000577569
0.000577647
0.000577733
0.000577827
0.000579736
0.000580167
0.000580308
0.000580047
0.000579633
0.000579199
0.000578793
0.000578439
0.000578142
0.0005779
0.000577708
0.000577561
0.000577453
0.000577377
0.000577329
0.000577306
0.000577303
0.000577318
0.000577349
0.000577393
0.000577449
0.000577515
0.000577591
0.000577675
0.000577767
0.000581906
0.000582019
0.000581788
0.00058113
0.000580385
0.000579703
0.000579125
0.000578652
0.000578272
0.000577974
0.000577744
0.00057757
0.000577443
0.000577354
0.000577297
0.000577266
0.000577259
0.00057727
0.000577297
0.000577339
0.000577393
0.000577458
0.000577532
0.000577615
0.000577706
0.000585849
0.000584871
0.000583679
0.000582329
0.000581119
0.000580139
0.000579372
0.000578781
0.000578329
0.000577986
0.000577728
0.000577537
0.000577399
0.000577303
0.000577242
0.000577209
0.000577199
0.000577209
0.000577236
0.000577277
0.00057733
0.000577394
0.000577468
0.00057755
0.00057764
0.000594762
0.000589647
0.000585919
0.000583433
0.000581653
0.000580362
0.000579433
0.00057876
0.000578268
0.000577907
0.000577641
0.000577448
0.00057731
0.000577216
0.000577158