/*--------------------------------*- C++ -*----------------------------------*\
  =========                 |
  \\      /  F ield         | OpenFOAM: The Open Source CFD Toolbox
   \\    /   O peration     | Website:  https://openfoam.org
    \\  /    A nd           | Version:  13
     \\/     M anipulation  |
\*---------------------------------------------------------------------------*/
FoamFile
{
    format      ascii;
    class       surfaceScalarField;
    location    "6";
    object      phi;
}
// * * * * * * * * * * * * * * * * * * * * * * * * * * * * * * * * * * * * * //

dimensions      [0 3 -1 0 0 0 0];

internalField   nonuniform List<scalar> 
12590
(
1.95339e-13
-1.95348e-13
4.47576e-13
-2.52248e-13
6.61686e-13
-2.14122e-13
8.61872e-13
-2.00199e-13
1.05356e-12
-1.91696e-13
1.22427e-12
-1.70729e-13
1.37312e-12
-1.48855e-13
1.48811e-12
-1.15003e-13
1.56046e-12
-7.23595e-14
1.58198e-12
-2.154e-14
1.5531e-12
2.88731e-14
1.47616e-12
7.6932e-14
1.35703e-12
1.19119e-13
1.20352e-12
1.53493e-13
1.02088e-12
1.82629e-13
8.17729e-13
2.03142e-13
5.99109e-13
2.18609e-13
3.6819e-13
2.30909e-13
1.34622e-13
2.33557e-13
-1.13568e-13
2.4818e-13
-3.82134e-13
2.68556e-13
-6.3035e-13
2.48205e-13
-7.91395e-13
1.61031e-13
-5.90359e-13
-2.01049e-13
-5.90361e-13
1.78374e-13
-3.73736e-13
4.34218e-13
-5.0811e-13
6.93544e-13
-4.73466e-13
9.6915e-13
-4.75823e-13
1.25697e-12
-4.7953e-13
1.57064e-12
-4.84417e-13
1.89373e-12
-4.71965e-13
2.21712e-12
-4.38416e-13
2.52487e-12
-3.80129e-13
2.80489e-12
-3.01568e-13
3.03504e-12
-2.01298e-13
3.20314e-12
-9.11814e-14
3.30187e-12
2.0369e-14
3.32793e-12
1.27418e-13
3.28565e-12
2.24888e-13
3.17606e-12
3.12718e-13
3.00297e-12
3.9168e-13
2.77219e-12
4.61672e-13
2.46642e-12
5.39317e-13
2.11153e-12
6.03054e-13
1.69598e-12
6.84085e-13
1.22995e-12
7.14224e-13
7.30677e-13
6.60283e-13
2.51421e-13
2.7819e-13
-3.38942e-13
2.15132e-13
-5.88885e-13
5.34582e-13
-8.27582e-13
8.95601e-13
-8.34506e-13
1.29071e-12
-8.70949e-13
1.74795e-12
-9.36794e-13
2.23937e-12
-9.75861e-13
2.73629e-12
-9.68904e-13
3.20714e-12
-9.09288e-13
3.62606e-12
-7.99066e-13
3.96645e-12
-6.41984e-13
4.21318e-12
-4.48041e-13
4.35187e-12
-2.29895e-13
4.37379e-12
-1.56913e-15
4.2739e-12
2.27293e-13
4.05737e-12
4.41393e-13
3.73961e-12
6.30466e-13
3.32876e-12
8.02506e-13
2.83335e-12
9.5707e-13
2.29249e-12
1.08015e-12
1.75226e-12
1.14326e-12
1.23112e-12
1.20522e-12
7.59133e-13
1.18619e-12
3.749e-13
1.04449e-12
8.49123e-14
5.68158e-13
-2.54032e-13
2.56475e-13
-8.45379e-13
6.22088e-13
-1.19322e-12
1.04163e-12
-1.25407e-12
1.53411e-12
-1.36346e-12
2.08493e-12
-1.48763e-12
2.65381e-12
-1.54476e-12
3.20906e-12
-1.52418e-12
3.69579e-12
-1.39604e-12
4.09006e-12
-1.19335e-12
4.3837e-12
-9.35648e-13
4.55281e-12
-6.17172e-13
4.58382e-12
-2.60927e-13
4.48227e-12
9.99593e-14
4.25905e-12
4.50497e-13
3.9152e-12
7.85216e-13
3.45383e-12
1.09182e-12
2.90456e-12
1.35176e-12
2.32693e-12
1.53468e-12
1.75315e-12
1.65392e-12
1.18756e-12
1.70883e-12
7.31965e-13
1.6608e-12
3.90056e-13
1.52808e-12
1.52582e-13
1.28195e-12
2.31246e-14
6.97594e-13
-2.3091e-13
2.86728e-13
-1.13213e-12
6.69868e-13
-1.57638e-12
1.09754e-12
-1.68176e-12
1.60581e-12
-1.87175e-12
2.14098e-12
-2.02283e-12
2.68239e-12
-2.0862e-12
3.19089e-12
-2.0327e-12
3.62004e-12
-1.82522e-12
3.93504e-12
-1.50837e-12
4.1247e-12
-1.12533e-12
4.18766e-12
-6.80163e-13
4.12259e-12
-1.9588e-13
3.91877e-12
3.0376e-13
3.59032e-12
7.78922e-13
3.16979e-12
1.20573e-12
2.69732e-12
1.56426e-12
2.19633e-12
1.85273e-12
1.6587e-12
2.07229e-12
1.15773e-12
2.15487e-12
7.31345e-13
2.1352e-12
3.72591e-13
2.01953e-12
1.28132e-13
1.77252e-12
2.0648e-14
1.38941e-12
-1.19641e-14
7.30183e-13
-2.42878e-13
3.01486e-13
-1.43364e-12
6.70061e-13
-1.94499e-12
1.07582e-12
-2.08755e-12
1.52363e-12
-2.31959e-12
1.9882e-12
-2.48743e-12
2.44376e-12
-2.54178e-12
2.86121e-12
-2.45019e-12
3.18227e-12
-2.14631e-12
3.43006e-12
-1.75618e-12
3.56358e-12
-1.25888e-12
3.56107e-12
-6.77682e-13
3.42178e-12
-5.66139e-14
3.16516e-12
5.60358e-13
2.81128e-12
1.13278e-12
2.38913e-12
1.62785e-12
1.93494e-12
2.01843e-12
1.4984e-12
2.28925e-12
1.11625e-12
2.45441e-12
7.28956e-13
2.54214e-12
4.09346e-13
2.45478e-12
1.76726e-13
2.25213e-12
2.66333e-14
1.92259e-12
-1.54869e-14
1.4315e-12
-4.41572e-14
7.58829e-13
-2.87039e-13
3.05285e-13
-1.73895e-12
6.37157e-13
-2.27689e-12
9.9374e-13
-2.44417e-12
1.36923e-12
-2.69511e-12
1.75522e-12
-2.87346e-12
2.12514e-12
-2.91173e-12
2.44115e-12
-2.76623e-12
2.69178e-12
-2.39697e-12
2.85461e-12
-1.91904e-12
2.90713e-12
-1.31143e-12
2.8523e-12
-6.22876e-13
2.69965e-12
9.60042e-14
2.46337e-12
7.96611e-13
2.16142e-12
1.43471e-12
1.81609e-12
1.97315e-12
1.45208e-12
2.38242e-12
1.10218e-12
2.63913e-12
8.0163e-13
2.75493e-12
5.62944e-13
2.78081e-12
3.3868e-13
2.67902e-12
1.66313e-13
2.42447e-12
4.1221e-14
2.04766e-12
-2.56409e-15
1.47526e-12
-5.75931e-14
8.13831e-13
-3.44637e-13
3.00926e-13
-2.03991e-12
5.8252e-13
-2.55852e-12
8.68777e-13
-2.73046e-12
1.14405e-12
-2.97042e-12
1.42958e-12
-3.15903e-12
1.70526e-12
-3.18744e-12
1.91888e-12
-2.97989e-12
2.1109e-12
-2.58903e-12
2.22419e-12
-2.03236e-12
2.25577e-12
-1.34304e-12
2.21235e-12
-5.79489e-13
2.10603e-12
2.02298e-13
1.95134e-12
9.5127e-13
1.76234e-12
1.62368e-12
1.55177e-12
2.18369e-12
1.33003e-12
2.60414e-12
1.10835e-12
2.86079e-12
9.08376e-13
2.95488e-12
7.43045e-13
2.94611e-12
5.68691e-13
2.85335e-12
3.95014e-13
2.59812e-12
2.26503e-13
2.21614e-12
8.80007e-14
1.61373e-12
-5.23185e-14
9.54122e-13
-3.9696e-13
2.91801e-13
-2.33175e-12
5.20345e-13
-2.78711e-12
7.25497e-13
-2.93566e-12
9.14367e-13
-3.15934e-12
1.09488e-12
-3.33958e-12
1.26759e-12
-3.3602e-12
1.45006e-12
-3.1624e-12
1.60585e-12
-2.74485e-12
1.71421e-12
-2.14076e-12
1.77373e-12
-1.40259e-12
1.79259e-12
-5.98377e-13
1.78521e-12
2.09644e-13
1.76413e-12
9.72322e-13
1.73724e-12
1.65055e-12
1.70618e-12
2.21473e-12
1.66561e-12
2.64468e-12
1.60119e-12
2.92518e-12
1.50295e-12
3.05309e-12
1.37218e-12
3.07686e-12
1.20228e-12
3.02323e-12
9.5802e-13
2.84236e-12
6.54227e-13
2.51991e-12
2.72351e-13
1.99558e-12
1.46965e-14
1.21175e-12
-3.82269e-13
2.74903e-13
-2.60669e-12
4.44336e-13
-2.9566e-12
5.5989e-13
-3.05127e-12
6.99842e-13
-3.29934e-12
8.28344e-13
-3.46813e-12
9.79197e-13
-3.5111e-12
1.14622e-12
-3.32946e-12
1.3116e-12
-2.91027e-12
1.47893e-12
-2.30813e-12
1.62381e-12
-1.54751e-12
1.76763e-12
-7.42228e-13
1.91959e-12
5.7653e-14
2.08624e-12
8.05649e-13
2.26869e-12
1.46807e-12
2.45753e-12
2.02586e-12
2.62769e-12
2.47449e-12
2.74212e-12
2.81073e-12
2.7578e-12
3.03739e-12
2.6498e-12
3.18483e-12
2.40842e-12
3.26459e-12
1.98669e-12
3.26407e-12
1.40645e-12
3.10013e-12
7.45223e-13
2.65677e-12
1.21172e-13
1.83577e-12
-2.61103e-13
2.61105e-13
-2.86785e-12
3.90597e-13
-3.08615e-12
4.59797e-13
-3.12052e-12
5.41035e-13
-3.38063e-12
7.03737e-13
-3.63089e-12
8.78916e-13
-3.68633e-12
1.10897e-12
-3.55956e-12
1.37827e-12
-3.17961e-12
1.68869e-12
-2.61859e-12
2.01852e-12
-1.87738e-12
2.37978e-12
-1.10352e-12
2.7723e-12
-3.34901e-13
3.18785e-12
3.90074e-13
3.63239e-12
1.0235e-12
4.08546e-12
1.57276e-12
4.49006e-12
2.06987e-12
4.79297e-12
2.5078e-12
4.93527e-12
2.89507e-12
4.8476e-12
3.27248e-12
4.40844e-12
3.70373e-12
3.65571e-12
4.01678e-12
2.61584e-12
4.13997e-12
1.42093e-12
3.85166e-12
3.27812e-13
2.92886e-12
6.67042e-14
2.5371e-13
-3.12161e-12
3.72916e-13
-3.20542e-12
4.4375e-13
-3.19143e-12
5.54322e-13
-3.49127e-12
7.71507e-13
-3.84813e-12
1.08695e-12
-4.00183e-12
1.49333e-12
-3.966e-12
1.99952e-12
-3.68585e-12
2.56649e-12
-3.1856e-12
3.22825e-12
-2.53919e-12
3.9563e-12
-1.8316e-12
4.73492e-12
-1.11355e-12
5.54474e-12
-4.19779e-13
6.31645e-12
2.51769e-13
7.01614e-12
8.73051e-13
7.62907e-12
1.45692e-12
8.07009e-12
2.06676e-12
8.22858e-12
2.73656e-12
8.01175e-12
3.48929e-12
7.40414e-12
4.31132e-12
6.22526e-12
5.19564e-12
4.4669e-12
5.89831e-12
2.48627e-12
5.83227e-12
6.79995e-13
4.73511e-12
7.46695e-13
2.56191e-13
-3.37787e-12
4.06439e-13
-3.35574e-12
5.44998e-13
-3.33006e-12
7.75012e-13
-3.72135e-12
1.16742e-12
-4.2406e-12
1.71884e-12
-4.55331e-12
2.4522e-12
-4.69941e-12
3.36026e-12
-4.59395e-12
4.41511e-12
-4.2405e-12
5.58217e-12
-3.70628e-12
6.83473e-12
-3.08419e-12
8.12781e-12
-2.40666e-12
9.40224e-12
-1.69423e-12
1.06189e-11
-9.64909e-13
1.17043e-11
-2.12349e-13
1.25654e-11
5.95734e-13
1.31098e-11
1.52243e-12
1.32171e-11
2.6292e-12
1.27481e-11
3.95824e-12
1.15699e-11
5.48955e-12
9.71081e-12
7.05472e-12
7.25746e-12
8.35164e-12
4.15137e-12
8.93834e-12
1.30259e-12
7.58388e-12
2.04928e-12
2.7205e-13
-3.64999e-12
5.07257e-13
-3.59103e-12
7.9668e-13
-3.61956e-12
1.24515e-12
-4.16989e-12
1.89928e-12
-4.89481e-12
2.86208e-12
-5.51617e-12
4.1479e-12
-5.98529e-12
5.68864e-12
-6.13473e-12
7.4071e-12
-5.959e-12
9.3181e-12
-5.61731e-12
1.13335e-11
-5.09962e-12
1.33859e-11
-4.45908e-12
1.53701e-11
-3.67844e-12
1.71616e-11
-2.75643e-12
1.86885e-11
-1.73922e-12
1.98276e-11
-5.43387e-13
2.04598e-11
8.9014e-13
2.04583e-11
2.63074e-12
1.96718e-11
4.74474e-12
1.79282e-11
7.23319e-12
1.50661e-11
9.9168e-12
1.11691e-11
1.22486e-11
6.75762e-12
1.33498e-11
2.43012e-12
1.19114e-11
4.4794e-12
2.99768e-13
-3.94982e-12
6.59287e-13
-3.95062e-12
1.19699e-12
-4.15733e-12
2.03099e-12
-5.00396e-12
3.15929e-12
-6.02318e-12
4.78564e-12
-7.14258e-12
6.75042e-12
-7.95013e-12
9.04563e-12
-8.43e-12
1.16964e-11
-8.60985e-12
1.4609e-11
-8.52986e-12
1.77139e-11
-8.20462e-12
2.08612e-11
-7.6064e-12
2.38493e-11
-6.66657e-12
2.65335e-11
-5.44058e-12
2.87459e-11
-3.95169e-12
3.0303e-11
-2.1005e-12
3.10678e-11
1.25362e-13
3.08913e-11
2.80727e-12
2.96108e-11
6.02516e-12
2.70493e-11
9.79472e-12
2.30425e-11
1.39236e-11
1.73794e-11
1.79118e-11
1.04879e-11
2.02413e-11
4.34958e-12
1.80497e-11
8.82899e-12
3.769e-13
-4.32679e-12
1.02242e-12
-4.59621e-12
1.98036e-12
-5.11533e-12
3.2839e-12
-6.30757e-12
5.22624e-12
-7.96559e-12
7.61587e-12
-9.53226e-12
1.05075e-11
-1.08418e-11
1.38875e-11
-1.18101e-11
1.76834e-11
-1.24058e-11
2.18015e-11
-1.2648e-11
2.61249e-11
-1.25281e-11
3.05343e-11
-1.20158e-11
3.49306e-11
-1.10629e-11
3.90811e-11
-9.59107e-12
4.25097e-11
-7.3803e-12
4.47709e-11
-4.36171e-12
4.58762e-11
-9.80012e-13
4.55962e-11
3.08733e-12
4.373e-11
7.89135e-12
4.01289e-11
1.33958e-11
3.45654e-11
1.9487e-11
2.66474e-11
2.58299e-11
1.73565e-11
2.95321e-11
7.18677e-12
2.82195e-11
1.60158e-11
5.08312e-13
-4.83515e-12
1.49317e-12
-5.58111e-12
2.97139e-12
-6.5936e-12
5.10417e-12
-8.4404e-12
7.85978e-12
-1.07212e-11
1.12776e-11
-1.29501e-11
1.54155e-11
-1.49798e-11
2.01638e-11
-1.65584e-11
2.54581e-11
-1.77e-11
3.11829e-11
-1.83729e-11
3.71842e-11
-1.85295e-11
4.32663e-11
-1.80979e-11
4.92035e-11
-1.70001e-11
5.47864e-11
-1.5174e-11
5.98526e-11
-1.24465e-11
6.37702e-11
-8.27932e-12
6.56422e-11
-2.85202e-12
6.56304e-11
3.09911e-12
6.32801e-11
1.02416e-11
5.82837e-11
1.83922e-11
5.15022e-11
2.62686e-11
4.1925e-11
3.5407e-11
2.85116e-11
4.29455e-11
1.21294e-11
4.46017e-11
2.81451e-11
6.58685e-13
-5.49385e-12
2.10267e-12
-7.02511e-12
4.28884e-12
-8.77979e-12
7.29075e-12
-1.14423e-11
1.11619e-11
-1.45924e-11
1.59473e-11
-1.77356e-11
2.15433e-11
-2.05759e-11
2.79338e-11
-2.2949e-11
3.50127e-11
-2.4779e-11
4.26445e-11
-2.60048e-11
5.06563e-11
-2.65413e-11
5.8838e-11
-2.62797e-11
6.69394e-11
-2.51015e-11
7.46174e-11
-2.28521e-11
8.14973e-11
-1.93264e-11
8.75866e-11
-1.43687e-11
9.13899e-11
-6.65534e-12
9.2701e-11
1.78798e-12
9.08931e-11
1.20495e-11
8.70733e-11
2.2212e-11
7.87698e-11
3.4572e-11
6.56304e-11
4.85464e-11
4.66439e-11
6.19321e-11
2.04288e-11
7.08168e-11
4.8574e-11
8.49247e-13
-6.34309e-12
2.84114e-12
-9.01699e-12
5.85086e-12
-1.17895e-11
9.93183e-12
-1.55233e-11
1.5116e-11
-1.97767e-11
2.14076e-11
-2.40272e-11
2.87577e-11
-2.7926e-11
3.70853e-11
-3.12767e-11
4.62755e-11
-3.39692e-11
5.61725e-11
-3.59019e-11
6.65821e-11
-3.69511e-11
7.72694e-11
-3.69671e-11
8.794e-11
-3.57722e-11
9.82392e-11
-3.31513e-11
1.07804e-10
-2.8891e-11
1.16087e-10
-2.26522e-11
1.23441e-10
-1.40094e-11
1.27573e-10
-2.34367e-12
1.28576e-10
1.10465e-11
1.26538e-10
2.42493e-11
1.1909e-10
4.20201e-11
1.04453e-10
6.31835e-11
7.92691e-11
8.71163e-11
3.99074e-11
1.10179e-10
8.84814e-11
1.0834e-12
-7.42645e-12
3.70905e-12
-1.16426e-11
7.67555e-12
-1.5756e-11
1.29905e-11
-2.08383e-11
1.9695e-11
-2.64812e-11
2.77451e-11
-3.20775e-11
3.70953e-11
-3.72763e-11
4.76357e-11
-4.18173e-11
5.92358e-11
-4.55694e-11
7.17215e-11
-4.83877e-11
8.4882e-11
-5.01117e-11
9.84657e-11
-5.05508e-11
1.12174e-10
-4.94808e-11
1.25663e-10
-4.66404e-11
1.38508e-10
-4.17364e-11
1.50306e-10
-3.44503e-11
1.60801e-10
-2.4504e-11
1.70074e-10
-1.16168e-11
1.76608e-10
4.51252e-12
1.79486e-10
2.13714e-11
1.77459e-10
4.40469e-11
1.68148e-10
7.24946e-11
1.47006e-10
1.08258e-10
1.06641e-10
1.50543e-10
1.95123e-10
1.073e-12
-8.49941e-12
3.80388e-12
-1.43734e-11
7.86402e-12
-1.98161e-11
1.31628e-11
-2.61371e-11
1.9701e-11
-3.30194e-11
2.75159e-11
-3.98925e-11
3.65966e-11
-4.63571e-11
4.69461e-11
-5.21669e-11
5.85265e-11
-5.71499e-11
7.12929e-11
-6.11543e-11
8.51966e-11
-6.40155e-11
1.0019e-10
-6.55439e-11
1.1623e-10
-6.55215e-11
1.33292e-10
-6.37018e-11
1.51373e-10
-5.98182e-11
1.7052e-10
-5.35972e-11
1.90827e-10
-4.48113e-11
2.12477e-10
-3.32667e-11
2.3584e-10
-1.88501e-11
2.58404e-10
-1.19273e-12
2.83831e-10
1.86193e-11
3.10914e-10
4.5412e-11
3.39455e-10
7.97171e-11
3.76095e-10
1.13904e-10
1.23937e-10
4.47281e-10
1.2145e-12
-9.71387e-12
4.33353e-12
-1.74924e-11
8.98692e-12
-2.44695e-11
1.50515e-11
-3.22018e-11
2.25117e-11
-4.04797e-11
3.13833e-11
-4.87641e-11
4.16689e-11
-5.66429e-11
5.33604e-11
-6.38586e-11
6.64375e-11
-7.02272e-11
8.08719e-11
-7.55889e-11
9.66427e-11
-7.97865e-11
1.13737e-10
-8.26387e-11
1.32159e-10
-8.39433e-11
1.51937e-10
-8.34796e-11
1.73135e-10
-8.10165e-11
1.95865e-10
-7.63273e-11
2.20256e-10
-6.92027e-11
2.46459e-10
-5.94692e-11
2.74608e-10
-4.69991e-11
3.05018e-10
-3.16035e-11
3.36445e-10
-1.28075e-11
3.70549e-10
1.13079e-11
4.06513e-10
4.37531e-11
4.36077e-10
8.43401e-11
1.30425e-10
4.29589e-10
1.33383e-12
-1.10477e-11
4.79547e-12
-2.0954e-11
9.98624e-12
-2.96603e-11
1.67561e-11
-3.89716e-11
2.50694e-11
-4.87931e-11
3.49257e-11
-5.86205e-11
4.63251e-11
-6.80424e-11
5.92573e-11
-7.6791e-11
7.37077e-11
-8.46778e-11
8.96638e-11
-9.15451e-11
1.07117e-10
-9.72401e-11
1.26076e-10
-1.01598e-10
1.46568e-10
-1.04435e-10
1.68644e-10
-1.05556e-10
1.9238e-10
-1.04752e-10
2.17867e-10
-1.01815e-10
2.45201e-10
-9.65364e-11
2.74422e-10
-8.86903e-11
3.05411e-10
-7.79883e-11
3.37747e-10
-6.39391e-11
3.70431e-10
-4.54917e-11
4.02175e-10
-2.04364e-11
4.30462e-10
1.54662e-11
4.47444e-10
6.73584e-11
1.44498e-10
4.33372e-10
1.43433e-12
-1.24819e-11
5.19381e-12
-2.47135e-11
1.08635e-11
-3.53299e-11
1.82712e-11
-4.63794e-11
2.73612e-11
-5.78831e-11
3.81176e-11
-6.93771e-11
5.05315e-11
-8.04564e-11
6.45899e-11
-9.08496e-11
8.02791e-11
-1.00367e-10
9.75889e-11
-1.08855e-10
1.16518e-10
-1.16169e-10
1.37078e-10
-1.22158e-10
1.59298e-10
-1.26656e-10
1.83222e-10
-1.2948e-10
2.089e-10
-1.3043e-10
2.3637e-10
-1.29285e-10
2.65624e-10
-1.2579e-10
2.96538e-10
-1.19605e-10
3.28748e-10
-1.10199e-10
3.61484e-10
-9.6675e-11
3.93418e-10
-7.74258e-11
4.2257e-10
-4.9588e-11
4.46011e-10
-7.9752e-12
4.59169e-10
5.42008e-11
1.48705e-10
4.54961e-10
1.51652e-12
-1.39984e-11
5.53023e-12
-2.87272e-11
1.16185e-11
-4.14182e-11
1.95915e-11
-5.43524e-11
2.93744e-11
-6.76661e-11
4.09359e-11
-8.09388e-11
5.42562e-11
-9.37767e-11
6.93159e-11
-1.05909e-10
8.60967e-11
-1.17148e-10
1.04585e-10
-1.27343e-10
1.24773e-10
-1.36358e-10
1.46668e-10
-1.44052e-10
1.70281e-10
-1.50269e-10
1.9563e-10
-1.54829e-10
2.22722e-10
-1.57522e-10
2.5153e-10
-1.58093e-10
2.81948e-10
-1.56209e-10
3.13729e-10
-1.51385e-10
3.46397e-10
-1.42867e-10
3.79119e-10
-1.29397e-10
4.10627e-10
-1.08934e-10
4.39195e-10
-7.8156e-11
4.63156e-10
-3.19362e-11
4.80677e-10
3.66792e-11
1.37404e-10
4.91979e-10
1.58092e-12
-1.55793e-11
5.80672e-12
-3.29529e-11
1.2254e-11
-4.78654e-11
2.07186e-11
-6.2817e-11
3.11086e-11
-7.80561e-11
4.33776e-11
-9.3208e-11
5.74937e-11
-1.07893e-10
7.34281e-11
-1.21844e-10
9.11536e-11
-1.34874e-10
1.10647e-10
-1.46836e-10
1.3189e-10
-1.57602e-10
1.54872e-10
-1.67034e-10
1.79583e-10
-1.7498e-10
2.06007e-10
-1.81253e-10
2.34107e-10
-1.85622e-10
2.63799e-10
-1.87786e-10
2.94919e-10
-1.87329e-10
3.27174e-10
-1.8364e-10
3.60085e-10
-1.75778e-10
3.92965e-10
-1.62276e-10
4.24899e-10
-1.40868e-10
4.54939e-10
-1.08196e-10
4.82581e-10
-5.95776e-11
5.08292e-10
1.09679e-11
1.10471e-10
5.35224e-10
1.62851e-12
-1.72077e-11
6.02629e-12
-3.73506e-11
1.27751e-11
-5.46142e-11
2.16601e-11
-7.17021e-11
3.25739e-11
-8.897e-11
4.54558e-11
-1.0609e-10
6.02611e-11
-1.22698e-10
7.69493e-11
-1.38532e-10
9.54817e-11
-1.53406e-10
1.15822e-10
-1.67177e-10
1.37939e-10
-1.79718e-10
1.618e-10
-1.90895e-10
1.87373e-10
-2.00553e-10
2.14612e-10
-2.08492e-10
2.43448e-10
-2.14458e-10
2.73764e-10
-2.18103e-10
3.05378e-10
-2.18943e-10
3.38014e-10
-2.16275e-10
3.71294e-10
-2.09058e-10
4.0476e-10
-1.95742e-10
4.37976e-10
-1.74084e-10
4.70742e-10
-1.40963e-10
5.03541e-10
-9.23766e-11
5.38165e-10
-2.36556e-11
6.99561e-11
5.7868e-10
1.66072e-12
-1.88684e-11
6.19358e-12
-4.18835e-11
1.31907e-11
-6.16113e-11
2.24295e-11
-8.09409e-11
3.37896e-11
-1.0033e-10
4.71964e-11
-1.19497e-10
6.25922e-11
-1.38094e-10
7.99242e-11
-1.55865e-10
9.9141e-11
-1.72623e-10
1.20193e-10
-1.8823e-10
1.43033e-10
-2.02558e-10
1.67612e-10
-2.15475e-10
1.93879e-10
-2.26819e-10
2.21767e-10
-2.36381e-10
2.51189e-10
-2.4388e-10
2.82024e-10
-2.48938e-10
3.14107e-10
-2.51026e-10
3.47228e-10
-2.49396e-10
3.81155e-10
-2.42984e-10
4.15696e-10
-2.30284e-10
4.50837e-10
-2.09225e-10
4.86984e-10
-1.7711e-10
5.25296e-10
-1.30688e-10
5.68152e-10
-6.6512e-11
1.84465e-11
6.19662e-10
1.67947e-12
-2.05478e-11
6.31447e-12
-4.65184e-11
1.35119e-11
-6.88087e-11
2.30446e-11
-9.04736e-11
3.47806e-11
-1.12066e-10
4.8633e-11
-1.33349e-10
6.45314e-11
-1.53993e-10
8.24107e-11
-1.73744e-10
1.02208e-10
-1.9242e-10
1.23861e-10
-2.09883e-10
1.47309e-10
-2.26006e-10
1.72491e-10
-2.40658e-10
1.99343e-10
-2.53671e-10
2.2779e-10
-2.64828e-10
2.57745e-10
-2.73835e-10
2.89101e-10
-2.80294e-10
3.21738e-10
-2.83663e-10
3.55537e-10
-2.83195e-10
3.90422e-10
-2.77869e-10
4.26443e-10
-2.66305e-10
4.63922e-10
-2.46704e-10
5.03658e-10
-2.16846e-10
5.47195e-10
-1.74225e-10
5.97083e-10
-1.164e-10
-4.15505e-11
6.5708e-10
1.68683e-12
-2.22345e-11
6.39544e-12
-5.12269e-11
1.3751e-11
-7.61642e-11
2.35244e-11
-1.00247e-10
3.55743e-11
-1.24116e-10
4.9802e-11
-1.47577e-10
6.6126e-11
-1.70317e-10
8.44702e-11
-1.92088e-10
1.04761e-10
-2.12711e-10
1.26927e-10
-2.32049e-10
1.50898e-10
-2.49978e-10
1.76606e-10
-2.66366e-10
2.03982e-10
-2.81046e-10
2.32952e-10
-2.93798e-10
2.63442e-10
-3.04325e-10
2.95378e-10
-3.1223e-10
3.28696e-10
-3.16982e-10
3.63374e-10
-3.17873e-10
3.99479e-10
-3.13973e-10
4.37253e-10
-3.04079e-10
4.77246e-10
-2.86697e-10
5.20484e-10
-2.60083e-10
5.68647e-10
-2.22388e-10
6.2421e-10
-1.71963e-10
-1.07818e-10
6.90477e-10
1.68491e-12
-2.39194e-11
6.44291e-12
-5.59848e-11
1.39202e-11
-8.36414e-11
2.38879e-11
-1.10215e-10
3.61968e-11
-1.36425e-10
5.07383e-11
-1.62119e-10
6.7421e-11
-1.87e-10
8.61598e-11
-2.10827e-10
1.06873e-10
-2.33425e-10
1.29482e-10
-2.54658e-10
1.53913e-10
-2.74409e-10
1.80094e-10
-2.92547e-10
2.07959e-10
-3.08911e-10
2.37444e-10
-3.23284e-10
2.68498e-10
-3.35378e-10
3.01083e-10
-3.44815e-10
3.35199e-10
-3.51098e-10
3.70911e-10
-3.53585e-10
4.08401e-10
-3.51464e-10
4.48051e-10
-3.43729e-10
4.90543e-10
-3.2919e-10
5.36991e-10
-3.06531e-10
5.89056e-10
-2.74452e-10
6.49004e-10
-2.31912e-10
-1.78477e-10
7.19664e-10
1.6756e-12
-2.55949e-11
6.46275e-12
-6.07719e-11
1.40303e-11
-9.1209e-11
2.41516e-11
-1.20336e-10
3.66711e-11
-1.48945e-10
5.14719e-11
-1.7692e-10
6.84544e-11
-2.03983e-10
8.75267e-11
-2.299e-10
1.08601e-10
-2.545e-10
1.31596e-10
-2.77653e-10
1.56435e-10
-2.99248e-10
1.83049e-10
-3.19162e-10
2.11379e-10
-3.37241e-10
2.41378e-10
-3.53282e-10
2.73017e-10
-3.67018e-10
3.06302e-10
-3.781e-10
3.41287e-10
-3.86082e-10
3.7811e-10
-3.90408e-10
4.1704e-10
-3.90394e-10
4.58543e-10
-3.85231e-10
5.03361e-10
-3.74008e-10
5.52605e-10
-3.55775e-10
6.07818e-10
-3.29666e-10
6.70999e-10
-2.95093e-10
-2.51996e-10
7.44518e-10
1.66057e-12
-2.72554e-11
6.45986e-12
-6.55711e-11
1.40906e-11
-9.88396e-11
2.43292e-11
-1.30575e-10
3.70157e-11
-1.61631e-10
5.20264e-11
-1.91931e-10
6.92555e-11
-2.21212e-10
8.86058e-11
-2.4925e-10
1.09987e-10
-2.75881e-10
1.33315e-10
-3.00982e-10
1.58515e-10
-3.24448e-10
1.85523e-10
-3.4617e-10
2.14291e-10
-3.66008e-10
2.44788e-10
-3.83779e-10
2.77013e-10
-3.99243e-10
3.11006e-10
-4.12093e-10
3.46869e-10
-4.21946e-10
3.84795e-10
-4.28334e-10
4.25107e-10
-4.30706e-10
4.68313e-10
-4.28437e-10
5.15163e-10
-4.20859e-10
5.66707e-10
-4.07318e-10
6.24328e-10
-3.87288e-10
6.89739e-10
-3.60503e-10
-3.27149e-10
7.64892e-10
1.64107e-12
-2.88963e-11
6.43809e-12
-7.0368e-11
1.41078e-11
-1.06509e-10
2.4431e-11
-1.40898e-10
3.72443e-11
-1.74445e-10
5.24188e-11
-2.07105e-10
6.98441e-11
-2.38637e-10
8.94197e-11
-2.68826e-10
1.11053e-10
-2.97515e-10
1.34661e-10
-3.2459e-10
1.60173e-10
-3.4996e-10
1.8753e-10
-3.73528e-10
2.16695e-10
-3.95174e-10
2.47655e-10
-4.1474e-10
2.80431e-10
-4.3202e-10
3.15094e-10
-4.46756e-10
3.51779e-10
-4.5863e-10
3.90714e-10
-4.67269e-10
4.32252e-10
-4.72244e-10
4.7691e-10
-4.73096e-10
5.25409e-10
-4.69357e-10
5.78707e-10
-4.60616e-10
6.38014e-10
-4.46594e-10
7.04768e-10
-4.27258e-10
-4.0294e-10
7.80559e-10
1.61809e-12
-3.05143e-11
6.40014e-12
-7.515e-11
1.40867e-11
-1.14196e-10
2.44639e-11
-1.51275e-10
3.73657e-11
-1.87347e-10
5.26597e-11
-2.22399e-10
7.0232e-11
-2.5621e-10
8.998e-11
-2.88574e-10
1.11811e-10
-3.19346e-10
1.35643e-10
-3.48422e-10
1.61409e-10
-3.75725e-10
1.89057e-10
-4.01176e-10
2.18561e-10
-4.24678e-10
2.49922e-10
-4.461e-10
2.83179e-10
-4.65278e-10
3.18424e-10
-4.82e-10
3.55813e-10
-4.9602e-10
3.95594e-10
-5.0705e-10
4.38127e-10
-5.14777e-10
4.83912e-10
-5.18881e-10
5.33618e-10
-5.19063e-10
5.88098e-10
-5.15096e-10
6.4839e-10
-5.06887e-10
7.15688e-10
-4.94556e-10
-4.78525e-10
7.91273e-10
1.59225e-12
-3.21064e-11
6.34789e-12
-7.99055e-11
1.40307e-11
-1.21878e-10
2.44321e-11
-1.61676e-10
3.73852e-11
-2.003e-10
5.27544e-11
-2.37769e-10
7.04238e-11
-2.73879e-10
9.02896e-11
-3.0844e-10
1.12259e-10
-3.41316e-10
1.36253e-10
-3.72416e-10
1.62206e-10
-4.01679e-10
1.90076e-10
-4.29046e-10
2.19841e-10
-4.54443e-10
2.51514e-10
-4.77774e-10
2.85148e-10
-4.98911e-10
3.20845e-10
-5.17697e-10
3.58774e-10
-5.33948e-10
3.99183e-10
-5.47459e-10
4.42424e-10
-5.58018e-10
4.88964e-10
-5.65421e-10
5.39406e-10
-5.69505e-10
5.94494e-10
-5.70184e-10
6.55105e-10
-5.67497e-10
7.22218e-10
-5.61669e-10
-5.53164e-10
7.96857e-10
1.56405e-12
-3.36704e-11
6.28246e-12
-8.46238e-11
1.39413e-11
-1.29537e-10
2.43379e-11
-1.72073e-10
3.73048e-11
-2.13267e-10
5.27047e-11
-2.53169e-10
7.04198e-11
-2.91595e-10
9.03459e-11
-3.28367e-10
1.12391e-10
-3.63361e-10
1.36477e-10
-3.96502e-10
1.62543e-10
-4.27745e-10
1.90548e-10
-4.57051e-10
2.2048e-10
-4.84375e-10
2.52355e-10
-5.0965e-10
2.86233e-10
-5.32789e-10
3.22221e-10
-5.53685e-10
3.60487e-10
-5.72214e-10
4.01272e-10
-5.88244e-10
4.44903e-10
-6.01649e-10
4.91804e-10
-6.12323e-10
5.42507e-10
-6.20208e-10
5.97647e-10
-6.25324e-10
6.57953e-10
-6.27804e-10
7.2422e-10
-6.27936e-10
-6.26202e-10
7.97259e-10
1.53362e-12
-3.52038e-11
6.20441e-12
-8.92944e-11
1.38193e-11
-1.37152e-10
2.4182e-11
-1.82436e-10
3.7125e-11
-2.2621e-10
5.25097e-11
-2.68553e-10
7.02174e-11
-3.09302e-10
9.01435e-11
-3.48293e-10
1.12196e-10
-3.85414e-10
1.36299e-10
-4.20605e-10
1.62392e-10
-4.53838e-10
1.90439e-10
-4.85098e-10
2.20426e-10
-5.14362e-10
2.52376e-10
-5.41599e-10
2.86346e-10
-5.66759e-10
3.22441e-10
-5.89781e-10
3.60821e-10
-6.10594e-10
4.01709e-10
-6.29132e-10
4.45401e-10
-6.4534e-10
4.9227e-10
-6.59192e-10
5.42773e-10
-6.70711e-10
5.97442e-10
-6.79993e-10
6.56875e-10
-6.87237e-10
7.21706e-10
-6.92767e-10
-6.97064e-10
7.92568e-10
1.50114e-12
-3.67048e-11
6.11386e-12
-9.3907e-11
1.3665e-11
-1.44703e-10
2.39642e-11
-1.92735e-10
3.6845e-11
-2.3909e-10
5.21678e-11
-2.83876e-10
6.98134e-11
-3.26948e-10
8.96765e-11
-3.68156e-10
1.11666e-10
-4.07403e-10
1.35705e-10
-4.44644e-10
1.61734e-10
-4.79868e-10
1.89717e-10
-5.13081e-10
2.19641e-10
-5.44287e-10
2.51525e-10
-5.73483e-10
2.85423e-10
-6.00657e-10
3.2143e-10
-6.25789e-10
3.59693e-10
-6.48857e-10
4.00408e-10
-6.69847e-10
4.43834e-10
-6.88766e-10
4.90292e-10
-7.0565e-10
5.40164e-10
-7.20582e-10
5.93886e-10
-7.33716e-10
6.51939e-10
-7.45289e-10
7.14818e-10
-7.55646e-10
-7.65253e-10
7.83007e-10
1.4665e-12
-3.81712e-11
6.01075e-12
-9.84511e-11
1.3478e-11
-1.5217e-10
2.36843e-11
-2.02941e-10
3.64642e-11
-2.5187e-10
5.16778e-11
-2.9909e-10
6.92051e-11
-3.44476e-10
8.89407e-11
-3.87892e-10
1.10792e-10
-4.29255e-10
1.34683e-10
-4.68535e-10
1.60554e-10
-5.05738e-10
1.88364e-10
-5.40891e-10
2.18099e-10
-5.74022e-10
2.49772e-10
-6.05156e-10
2.83428e-10
-6.34314e-10
3.19151e-10
-6.61512e-10
3.57064e-10
-6.8677e-10
3.97338e-10
-7.10121e-10
4.4019e-10
-7.31618e-10
4.85886e-10
-7.51345e-10
5.34737e-10
-7.69434e-10
5.87092e-10
-7.86072e-10
6.43325e-10
-8.01522e-10
7.03813e-10
-8.16134e-10
-8.30351e-10
7.68911e-10
1.42972e-12
-3.96007e-11
5.89493e-12
-1.02916e-10
1.32583e-11
-1.59533e-10
2.33421e-11
-2.13025e-10
3.59824e-11
-2.64511e-10
5.10393e-11
-3.14147e-10
6.83922e-11
-3.61829e-10
8.79348e-11
-4.07435e-10
1.09574e-10
-4.50895e-10
1.33232e-10
-4.92193e-10
1.58846e-10
-5.31352e-10
1.86372e-10
-5.68418e-10
2.15792e-10
-6.03441e-10
2.47108e-10
-6.36473e-10
2.80356e-10
-6.67562e-10
3.15602e-10
-6.96757e-10
3.52946e-10
-7.24114e-10
3.92527e-10
-7.49702e-10
4.3452e-10
-7.73612e-10
4.79139e-10
-7.95964e-10
5.26628e-10
-8.16922e-10
5.77254e-10
-8.36698e-10
6.31297e-10
-8.55566e-10
6.89032e-10
-8.73868e-10
-8.92022e-10
7.50703e-10
1.3907e-12
-4.09913e-11
5.76645e-12
-1.07292e-10
1.30061e-11
-1.66773e-10
2.29383e-11
-2.22957e-10
3.54009e-11
-2.76973e-10
5.02541e-11
-3.29e-10
6.73767e-11
-3.78951e-10
8.66617e-11
-4.2672e-10
1.08015e-10
-4.72248e-10
1.31354e-10
-5.15533e-10
1.56616e-10
-5.56614e-10
1.8375e-10
-5.95553e-10
2.1273e-10
-6.32421e-10
2.4355e-10
-6.67293e-10
2.7623e-10
-7.00242e-10
3.10817e-10
-7.31344e-10
3.47387e-10
-7.60684e-10
3.86046e-10
-7.88361e-10
4.26929e-10
-8.14495e-10
4.70197e-10
-8.39232e-10
5.16032e-10
-8.62757e-10
5.64629e-10
-8.85295e-10
6.16184e-10
-9.07121e-10
6.70881e-10
-9.28565e-10
-9.50012e-10
7.28871e-10
1.34947e-12
-4.23406e-11
5.62549e-12
-1.11568e-10
1.27221e-11
-1.7387e-10
2.24743e-11
-2.32709e-10
3.47221e-11
-2.89221e-10
4.9326e-11
-3.43604e-10
6.61643e-11
-3.9579e-10
8.51288e-11
-4.45685e-10
1.06123e-10
-4.93243e-10
1.29063e-10
-5.38474e-10
1.5388e-10
-5.8143e-10
1.80517e-10
-6.2219e-10
2.0894e-10
-6.60844e-10
2.39131e-10
-6.97484e-10
2.71094e-10
-7.32205e-10
3.04858e-10
-7.65107e-10
3.40471e-10
-7.96298e-10
3.78008e-10
-8.25898e-10
4.17563e-10
-8.5405e-10
4.5925e-10
-8.80919e-10
5.03192e-10
-9.06699e-10
5.49521e-10
-9.31623e-10
5.98358e-10
-9.55959e-10
6.49809e-10
-9.80016e-10
-1.00415e-09
7.03942e-10
1.30608e-12
-4.36465e-11
5.47251e-12
-1.15734e-10
1.24076e-11
-1.80804e-10
2.19527e-11
-2.42254e-10
3.39502e-11
-3.01219e-10
4.82614e-11
-3.57916e-10
6.47638e-11
-4.12293e-10
8.33481e-11
-4.64269e-10
1.03916e-10
-5.1381e-10
1.26379e-10
-5.60937e-10
1.50664e-10
-6.05715e-10
1.76707e-10
-6.48234e-10
2.04464e-10
-6.88601e-10
2.33905e-10
-7.26925e-10
2.65019e-10
-7.63319e-10
2.97812e-10
-7.979e-10
3.32309e-10
-8.30795e-10
3.68552e-10
-8.62142e-10
4.06599e-10
-8.92097e-10
4.46518e-10
-9.20837e-10
4.88381e-10
-9.48563e-10
5.32262e-10
-9.75503e-10
5.78217e-10
-1.00191e-09
6.26285e-10
-1.02808e-09
-1.05432e-09
6.76463e-10
1.26065e-12
-4.49069e-11
5.3082e-12
-1.19781e-10
1.20644e-11
-1.87561e-10
2.1377e-11
-2.51567e-10
3.30912e-11
-3.12933e-10
4.70689e-11
-3.71893e-10
6.31875e-11
-4.28411e-10
8.13361e-11
-4.82418e-10
1.01414e-10
-5.33888e-10
1.23329e-10
-5.82853e-10
1.47002e-10
-6.29388e-10
1.72363e-10
-6.73596e-10
1.99357e-10
-7.15595e-10
2.27941e-10
-7.55509e-10
2.58088e-10
-7.93466e-10
2.89785e-10
-8.29597e-10
3.23032e-10
-8.64041e-10
3.57841e-10
-8.96952e-10
3.94236e-10
-9.28492e-10
4.32244e-10
-9.58845e-10
4.71891e-10
-9.88211e-10
5.132e-10
-1.01681e-09
5.56172e-10
-1.04489e-09
6.00786e-10
-1.0727e-09
-1.10052e-09
6.46981e-10
1.21332e-12
-4.61201e-11
5.13353e-12
-1.23701e-10
1.16949e-11
-1.94122e-10
2.07517e-11
-2.60624e-10
3.21524e-11
-3.24333e-10
4.57596e-11
-3.85501e-10
6.14506e-11
-4.44102e-10
7.91131e-11
-5.00081e-10
9.86436e-11
-5.53419e-10
1.19947e-10
-6.04157e-10
1.42938e-10
-6.52378e-10
1.67538e-10
-6.98197e-10
1.93684e-10
-7.41741e-10
2.21319e-10
-7.83145e-10
2.50401e-10
-8.22548e-10
2.80898e-10
-8.60093e-10
3.12786e-10
-8.9593e-10
3.46052e-10
-9.30218e-10
3.80686e-10
-9.63126e-10
4.16681e-10
-9.94839e-10
4.54022e-10
-1.02555e-09
4.92686e-10
-1.05548e-09
5.32629e-10
-1.08483e-09
5.73781e-10
-1.11385e-09
-1.14277e-09
6.16029e-10
1.16439e-12
-4.72843e-11
4.94969e-12
-1.27486e-10
1.1302e-11
-2.00474e-10
2.00824e-11
-2.69404e-10
3.11424e-11
-3.35393e-10
4.43462e-11
-3.98705e-10
5.95708e-11
-4.59327e-10
7.67028e-11
-5.17213e-10
9.56361e-11
-5.72352e-10
1.16272e-10
-6.24793e-10
1.38519e-10
-6.74625e-10
1.62292e-10
-7.21971e-10
1.87518e-10
-7.66966e-10
2.14128e-10
-8.09755e-10
2.42066e-10
-8.50485e-10
2.7128e-10
-8.89307e-10
3.01727e-10
-9.26377e-10
3.33369e-10
-9.61859e-10
3.66168e-10
-9.95925e-10
4.00084e-10
-1.02876e-09
4.3507e-10
-1.06054e-09
4.71065e-10
-1.09147e-09
5.07984e-10
-1.12175e-09
5.45717e-10
-1.15158e-09
-1.18116e-09
5.84112e-10
1.1141e-12
-4.83982e-11
4.75806e-12
-1.3113e-10
1.08891e-11
-2.06605e-10
1.93751e-11
-2.7789e-10
3.00712e-11
-3.4609e-10
4.28431e-11
-4.11477e-10
5.7568e-11
-4.74052e-10
7.41313e-11
-5.33776e-10
9.24248e-11
-5.90646e-10
1.12346e-10
-6.44714e-10
1.33798e-10
-6.96077e-10
1.5669e-10
-7.44863e-10
1.80937e-10
-7.91214e-10
2.06462e-10
-8.35281e-10
2.33193e-10
-8.77216e-10
2.61064e-10
-9.17178e-10
2.90012e-10
-9.55325e-10
3.19977e-10
-9.91825e-10
3.50897e-10
-1.02685e-09
3.82706e-10
-1.06056e-09
4.15327e-10
-1.09316e-09
4.48666e-10
-1.12481e-09
4.8261e-10
-1.15569e-09
5.17014e-10
-1.18599e-09
-1.21584e-09
5.51695e-10
1.06282e-12
-4.94608e-11
4.5602e-12
-1.34627e-10
1.04599e-11