/*--------------------------------*- C++ -*----------------------------------*\
  =========                 |
  \\      /  F ield         | OpenFOAM: The Open Source CFD Toolbox
   \\    /   O peration     | Website:  https://openfoam.org
    \\  /    A nd           | Version:  13
     \\/     M anipulation  |
\*---------------------------------------------------------------------------*/
FoamFile
{
    format      ascii;
    class       surfaceScalarField;
    location    "6";
    object      phi;
}
// * * * * * * * * * * * * * * * * * * * * * * * * * * * * * * * * * * * * * //

dimensions      [0 3 -1 0 0 0 0];

internalField   nonuniform List<scalar> 
12590
(
-7.34166e-09
5.96818e-09
-1.77722e-08
5.80093e-09
-2.44597e-08
6.27903e-09
-3.56888e-08
6.68867e-09
-4.30383e-08
7.65209e-09
-5.54115e-08
7.89839e-09
-6.32322e-08
8.50507e-09
-7.57638e-08
8.27757e-09
-8.36122e-08
8.30676e-09
-9.5233e-08
7.53336e-09
-1.02173e-07
6.86815e-09
-1.11177e-07
5.19397e-09
-1.15245e-07
3.17752e-09
-1.19008e-07
4.64097e-10
-1.18483e-07
-2.16796e-09
-1.16181e-07
-5.01956e-09
-1.10703e-07
-7.78976e-09
-1.02181e-07
-1.06704e-08
-9.09159e-08
-1.40059e-08
-7.48839e-08
-1.79251e-08
-5.51153e-08
-2.29271e-08
-2.90394e-08
-2.77212e-08
-3.69187e-09
-2.94562e-08
1.1513e-08
-1.83775e-08
1.02336e-08
-1.83695e-08
2.17462e-08
-3.96023e-08
2.37355e-08
-5.83937e-08
2.34062e-08
-7.83125e-08
2.38983e-08
-9.61592e-08
2.44427e-08
-1.14906e-07
2.43628e-08
-1.30963e-07
2.36669e-08
-1.46895e-07
2.20021e-08
-1.59057e-07
1.95572e-08
-1.69905e-07
1.60976e-08
-1.76449e-07
1.20336e-08
-1.80729e-07
7.08833e-09
-1.80641e-07
1.34838e-09
-1.77929e-07
-4.66224e-09
-1.71561e-07
-1.05689e-08
-1.62554e-07
-1.63915e-08
-1.50579e-07
-2.20116e-08
-1.35889e-07
-2.77925e-08
-1.17967e-07
-3.40786e-08
-9.67247e-08
-4.18627e-08
-7.08545e-08
-5.06626e-08
-4.25611e-08
-5.93313e-08
-1.24624e-08
-6.10961e-08
7.4619e-09
-4.26226e-08
1.66792e-08
-2.40853e-08
4.3461e-08
-5.03644e-08
4.67431e-08
-7.4294e-08
4.56792e-08
-9.83906e-08
4.57674e-08
-1.20615e-07
4.54587e-08
-1.42167e-07
4.39694e-08
-1.60481e-07
4.09942e-08
-1.76636e-07
3.63448e-08
-1.88672e-07
3.03067e-08
-1.97846e-07
2.32776e-08
-2.02979e-07
1.56339e-08
-2.05279e-07
7.09998e-09
-2.03449e-07
-2.3632e-09
-1.98418e-07
-1.19585e-08
-1.89607e-07
-2.15251e-08
-1.77334e-07
-3.08984e-08
-1.61873e-07
-3.98784e-08
-1.43286e-07
-4.84396e-08
-1.22824e-07
-5.73628e-08
-9.94773e-08
-6.71776e-08
-7.48073e-08
-7.86674e-08
-4.64168e-08
-8.89594e-08
-2.00503e-08
-9.197e-08
1.74029e-09
-6.65207e-08
1.68938e-08
-2.78168e-08
6.83694e-08
-5.6937e-08
7.32999e-08
-8.49269e-08
7.18822e-08
-1.1248e-07
7.12705e-08
-1.37739e-07
6.94599e-08
-1.6105e-07
6.55778e-08
-1.807e-07
5.93835e-08
-1.97373e-07
5.1193e-08
-2.09786e-07
4.15254e-08
-2.19468e-07
3.09166e-08
-2.25706e-07
2.01252e-08
-2.29188e-07
8.4041e-09
-2.28641e-07
-4.85083e-09
-2.24353e-07
-1.84839e-08
-2.15528e-07
-3.24524e-08
-2.02235e-07
-4.64771e-08
-1.84413e-07
-5.9904e-08
-1.63029e-07
-7.24465e-08
-1.38517e-07
-8.40442e-08
-1.12829e-07
-9.61083e-08
-8.45325e-08
-1.08706e-07
-5.69235e-08
-1.20904e-07
-2.63381e-08
-1.228e-07
-3.8509e-09
-9.36997e-08
1.21134e-08
-3.03178e-08
9.63776e-08
-6.31419e-08
1.0324e-07
-9.47101e-08
1.01801e-07
-1.25159e-07
9.97763e-08
-1.52688e-07
9.55859e-08
-1.77617e-07
8.86472e-08
-1.98576e-07
7.91461e-08
-2.16592e-07
6.74622e-08
-2.31088e-07
5.44131e-08
-2.42948e-07
4.08319e-08
-2.5173e-07
2.71664e-08
-2.5819e-07
1.25761e-08
-2.60436e-07
-4.58411e-09
-2.58472e-07
-2.26393e-08
-2.51372e-07
-4.1648e-08
-2.3878e-07
-6.12121e-08
-2.20501e-07
-8.04644e-08
-1.96549e-07
-9.84084e-08
-1.68655e-07
-1.1471e-07
-1.37124e-07
-1.29398e-07
-1.05336e-07
-1.44096e-07
-6.99309e-08
-1.5662e-07
-3.83102e-08
-1.59535e-07
-9.32315e-09
-1.23956e-07
1.1799e-09
-3.29347e-08
1.26339e-07
-6.86594e-08
1.36778e-07
-1.03475e-07
1.347e-07
-1.36259e-07
1.30552e-07
-1.65707e-07
1.23527e-07
-1.92241e-07
1.13463e-07
-2.15462e-07
1.0075e-07
-2.36079e-07
8.6182e-08
-2.53451e-07
7.03958e-08
-2.68561e-07
5.38243e-08
-2.80594e-07
3.71941e-08
-2.90327e-07
2.00851e-08
-2.96086e-07
-8.83167e-10
-2.97288e-07
-2.36432e-08
-2.9293e-07
-4.80255e-08
-2.82503e-07
-7.3768e-08
-2.65156e-07
-9.97802e-08
-2.4089e-07
-1.24934e-07
-2.09599e-07
-1.47666e-07
-1.73765e-07
-1.67945e-07
-1.33492e-07
-1.85392e-07
-9.42516e-08
-1.99939e-07
-5.2293e-08
-2.00595e-07
-1.88463e-08
-1.62146e-07
-1.83077e-08
-3.45959e-08
1.58534e-07
-7.35359e-08
1.72769e-07
-1.10666e-07
1.69933e-07
-1.45401e-07
1.63205e-07
-1.76908e-07
1.53255e-07
-2.059e-07
1.40382e-07
-2.3184e-07
1.25204e-07
-2.55594e-07
1.08072e-07
-2.76743e-07
8.95933e-08
-2.95287e-07
7.03505e-08
-3.10626e-07
5.05729e-08
-3.23421e-07
3.04587e-08
-3.32852e-07
6.38154e-09
-3.37332e-07
-2.13562e-08
-3.36071e-07
-5.13824e-08
-3.28252e-07
-8.35478e-08
-3.13124e-07
-1.16942e-07
-2.89508e-07
-1.50133e-07
-2.57813e-07
-1.81626e-07
-2.1753e-07
-2.09419e-07
-1.72676e-07
-2.3326e-07
-1.22269e-07
-2.5003e-07
-7.59459e-08
-2.52347e-07
-3.05206e-08
-2.07836e-07
-5.0662e-08
-3.67271e-08
1.91818e-07
-7.74254e-08
2.11152e-07
-1.16771e-07
2.06895e-07
-1.53566e-07
1.9766e-07
-1.87453e-07
1.85193e-07
-2.19021e-07
1.69976e-07
-2.48309e-07
1.52457e-07
-2.75537e-07
1.33201e-07
-3.00006e-07
1.12425e-07
-3.22107e-07
9.01765e-08
-3.40878e-07
6.70789e-08
-3.56232e-07
4.34812e-08
-3.68959e-07
1.67734e-08
-3.76413e-07
-1.62033e-08
-3.77798e-07
-5.21303e-08
-3.72443e-07
-9.09638e-08
-3.5935e-07
-1.31912e-07
-3.37739e-07
-1.73838e-07
-3.06137e-07
-2.14767e-07
-2.65211e-07
-2.52885e-07
-2.14363e-07
-2.84975e-07
-1.60182e-07
-3.08481e-07
-1.00364e-07
-3.10581e-07
-4.75648e-08
-2.65676e-07
-9.87125e-08
-3.81123e-08
2.27031e-07
-8.14783e-08
2.5104e-07
-1.22713e-07
2.45705e-07
-1.6172e-07
2.34152e-07
-1.98256e-07
2.19444e-07
-2.32898e-07
2.02197e-07
-2.65189e-07
1.82906e-07
-2.95618e-07
1.61552e-07
-3.23803e-07
1.3832e-07
-3.49207e-07
1.13432e-07
-3.71117e-07
8.68534e-08
-3.89231e-07
5.90424e-08
-4.04278e-07
2.93753e-08
-4.14338e-07
-8.52737e-09
-4.17779e-07
-5.08956e-08
-4.14056e-07
-9.67268e-08
-4.02487e-07
-1.45495e-07
-3.81911e-07
-1.96094e-07
-3.51642e-07
-2.47187e-07
-3.09748e-07
-2.95948e-07
-2.58067e-07
-3.39477e-07
-1.95112e-07
-3.70849e-07
-1.31447e-07
-3.79562e-07
-6.44148e-08
-3.32447e-07
-1.64876e-07
-4.04638e-08
2.63334e-07
-8.55685e-08
2.93468e-07
-1.29329e-07
2.86482e-07
-1.70888e-07
2.72937e-07
-2.1022e-07
2.56351e-07
-2.47643e-07
2.37329e-07
-2.83293e-07
2.16167e-07
-3.17157e-07
1.93109e-07
-3.48574e-07
1.67883e-07
-3.77525e-07
1.40004e-07
-4.02837e-07
1.09806e-07
-4.23834e-07
7.76502e-08
-4.40634e-07
4.36979e-08
-4.53186e-07
1.58539e-09
-4.581e-07
-4.81204e-08
-4.55148e-07
-1.01733e-07
-4.4366e-07
-1.58766e-07
-4.23203e-07
-2.1846e-07
-3.92311e-07
-2.79373e-07
-3.50654e-07
-3.39671e-07
-2.96026e-07
-3.94689e-07
-2.32339e-07
-4.38076e-07
-1.57686e-07
-4.52396e-07
-8.37795e-08
-4.1105e-07
-2.48863e-07
-4.24795e-08
3.02473e-07
-9.08774e-08
3.37883e-07
-1.37079e-07
3.29829e-07
-1.81442e-07
3.14412e-07
-2.23808e-07
2.96063e-07
-2.64586e-07
2.75449e-07
-3.03521e-07
2.52995e-07
-3.40947e-07
2.28327e-07
-3.76468e-07
2.00966e-07
-4.0909e-07
1.70481e-07
-4.37939e-07
1.36515e-07
-4.62343e-07
9.96115e-08
-4.81395e-07
6.03495e-08
-4.9631e-07
1.41541e-08
-5.02364e-07
-4.41484e-08
-4.99254e-07
-1.06687e-07
-4.86713e-07
-1.73047e-07
-4.64172e-07
-2.42375e-07
-4.31495e-07
-3.13792e-07
-3.87101e-07
-3.85025e-07
-3.31468e-07
-4.5266e-07
-2.61762e-07
-5.07364e-07
-1.85474e-07
-5.33907e-07
-9.88739e-08
-4.96955e-07
-3.49759e-07
-4.59103e-08
3.43591e-07
-9.67304e-08
3.85685e-07
-1.46268e-07
3.7592e-07
-1.93887e-07
3.5893e-07
-2.39735e-07
3.39129e-07
-2.84104e-07
3.17265e-07
-3.27349e-07
2.93627e-07
-3.69283e-07
2.67844e-07
-4.09087e-07
2.38798e-07
-4.4625e-07
2.053e-07
-4.79445e-07
1.67434e-07
-5.07622e-07
1.25585e-07
-5.29725e-07
8.01609e-08
-5.46639e-07
2.88264e-08
-5.53503e-07
-3.91972e-08
-5.49622e-07
-1.12298e-07
-5.3473e-07
-1.89447e-07
-5.08874e-07
-2.6984e-07
-4.71633e-07
-3.52296e-07
-4.2333e-07
-4.35322e-07
-3.62372e-07
-5.14651e-07
-2.91023e-07
-5.82503e-07
-2.05187e-07
-6.18232e-07
-1.13591e-07
-5.9389e-07
-4.63846e-07
-4.89244e-08
3.88207e-07
-1.03933e-07
4.35948e-07
-1.56835e-07
4.25102e-07
-2.08262e-07
4.06792e-07
-2.5834e-07
3.8585e-07
-3.07476e-07
3.6334e-07
-3.55703e-07
3.39258e-07
-4.02889e-07
3.12586e-07
-4.48364e-07
2.81624e-07
-4.90709e-07
2.45437e-07
-5.28868e-07
2.03372e-07
-5.61522e-07
1.55983e-07
-5.87076e-07
1.03459e-07
-6.05263e-07
4.49057e-08
-6.1262e-07
-3.37106e-08
-6.0724e-07
-1.1925e-07
-5.89094e-07
-2.09131e-07
-5.58206e-07
-3.02058e-07
-5.15178e-07
-3.97056e-07
-4.59925e-07
-4.91953e-07
-3.93473e-07
-5.83659e-07
-3.1358e-07
-6.62748e-07
-2.25377e-07
-7.12083e-07
-1.22294e-07
-6.96889e-07
-5.88122e-07
-5.3046e-08
4.34998e-07
-1.11519e-07
4.89578e-07
-1.68624e-07
4.77506e-07
-2.24646e-07
4.58317e-07
-2.79671e-07
4.372e-07
-3.3448e-07
4.14559e-07
-3.88903e-07
3.90579e-07
-4.42626e-07
3.63184e-07
-4.94111e-07
3.30713e-07
-5.42646e-07
2.91108e-07
-5.86272e-07
2.4458e-07
-6.23639e-07
1.90724e-07
-6.52567e-07
1.30074e-07
-6.71759e-07
6.1505e-08
-6.78774e-07
-2.85658e-08
-6.7109e-07
-1.28941e-07
-6.48296e-07
-2.33309e-07
-6.11322e-07
-3.40881e-07
-5.60387e-07
-4.49294e-07
-4.97278e-07
-5.5714e-07
-4.21927e-07
-6.60419e-07
-3.36519e-07
-7.51657e-07
-2.37585e-07
-8.09893e-07
-1.30059e-07
-8.09136e-07
-7.19262e-07
-5.68477e-08
4.85071e-07
-1.19611e-07
5.46691e-07
-1.81289e-07
5.33645e-07
-2.421e-07
5.14863e-07
-3.03304e-07
4.9364e-07
-3.64522e-07
4.72553e-07
-4.26238e-07
4.48348e-07
-4.868e-07
4.21184e-07
-5.45754e-07
3.8584e-07
-6.00514e-07
3.43449e-07
-6.50208e-07
2.9071e-07
-6.91974e-07
2.29944e-07
-7.24357e-07
1.58837e-07
-7.44047e-07
7.86223e-08
-7.50146e-07
-2.57924e-08
-7.38427e-07
-1.42439e-07
-7.10217e-07
-2.64234e-07
-6.64929e-07
-3.87341e-07
-6.05351e-07
-5.11266e-07
-5.31944e-07
-6.31415e-07
-4.48374e-07
-7.46431e-07
-3.52645e-07
-8.47043e-07
-2.49472e-07
-9.17541e-07
-1.33678e-07
-9.26164e-07
-8.5472e-07
-6.03725e-08
5.41374e-07
-1.27721e-07
6.08995e-07
-1.93283e-07
5.96436e-07
-2.60436e-07
5.76876e-07
-3.26835e-07
5.59009e-07
-3.96788e-07
5.36574e-07
-4.64691e-07
5.15904e-07
-5.34696e-07
4.85144e-07
-5.99542e-07
4.50452e-07
-6.6283e-07
4.01005e-07
-7.17176e-07
3.44147e-07
-7.64785e-07
2.72306e-07
-7.98908e-07
1.91237e-07
-8.20374e-07
9.45696e-08
-8.22905e-07
-2.49885e-08
-8.07418e-07
-1.62643e-07
-7.70558e-07
-3.02004e-07
-7.17234e-07
-4.44567e-07
-6.45693e-07
-5.83015e-07
-5.62703e-07
-7.17711e-07
-4.67704e-07
-8.41128e-07
-3.66732e-07
-9.52023e-07
-2.54465e-07
-1.0293e-06
-1.35229e-07
-1.04949e-06
-9.89369e-07
-6.44802e-08
6.0259e-07
-1.33877e-07
6.79061e-07
-2.05665e-07
6.64845e-07
-2.75094e-07
6.49552e-07
-3.52397e-07
6.28758e-07
-4.24916e-07
6.13124e-07
-5.05859e-07
5.87584e-07
-5.78701e-07
5.61906e-07
-6.56618e-07
5.19121e-07
-7.22786e-07
4.69852e-07
-7.87516e-07
4.01044e-07
-8.3659e-07
3.22402e-07
-8.76714e-07
2.2427e-07
-8.95329e-07
1.13292e-07
-8.97023e-07
-2.98186e-08
-8.72294e-07
-1.87594e-07
-8.28568e-07
-3.50928e-07
-7.6215e-07
-5.11039e-07
-6.80912e-07
-6.68462e-07
-5.84425e-07
-8.14088e-07
-4.82308e-07
-9.48401e-07
-3.7207e-07
-1.06199e-06
-2.57828e-07
-1.14846e-06
-1.31052e-07
-1.1734e-06
-1.12396e-06
-6.54113e-08
6.71609e-07
-1.40097e-07
7.53213e-07
-2.12168e-07
7.41659e-07
-2.91978e-07
7.24039e-07
-3.68804e-07
7.1027e-07
-4.55754e-07
6.91151e-07
-5.36873e-07
6.72627e-07
-6.25692e-07
6.4094e-07
-7.05257e-07
6.01228e-07
-7.86027e-07
5.41682e-07
-8.52492e-07
4.6868e-07
-9.11402e-07
3.7447e-07
-9.49999e-07
2.63561e-07
-9.72205e-07
1.28985e-07
-9.64734e-07
-3.68469e-08
-9.33853e-07
-2.2356e-07
-8.75695e-07
-4.0891e-07
-7.98542e-07
-5.92272e-07
-7.02359e-07
-7.64931e-07
-5.9729e-07
-9.24375e-07
-4.84524e-07
-1.06224e-06
-3.73385e-07
-1.17913e-06
-2.54744e-07
-1.2632e-06
-1.31952e-07
-1.30634e-06
-1.25502e-06
-6.67379e-08
7.37215e-07
-1.41206e-07
8.29156e-07
-2.19311e-07
8.1728e-07
-2.99051e-07
8.05156e-07
-3.86104e-07
7.91942e-07
-4.74497e-07
7.79361e-07
-5.68409e-07
7.60218e-07
-6.6116e-07
7.32193e-07
-7.54732e-07
6.87435e-07
-8.40512e-07
6.25249e-07
-9.18372e-07
5.4062e-07
-9.80472e-07
4.33517e-07
-1.02398e-06
3.01636e-07
-1.04102e-06
1.45189e-07
-1.02755e-06
-5.44045e-08
-9.81525e-07
-2.69563e-07
-9.0989e-07
-4.83481e-07
-8.1429e-07
-6.88061e-07
-7.04925e-07
-8.77594e-07
-5.86305e-07
-1.04437e-06
-4.69805e-07
-1.18355e-06
-3.56234e-07
-1.29139e-06
-2.56141e-07
-1.37354e-06
-1.32718e-07
-1.42443e-06
-1.38696e-06
-6.47809e-08
8.00168e-07
-1.41739e-07
9.03198e-07
-2.20498e-07
8.95296e-07
-3.05275e-07
8.86413e-07
-3.95143e-07
8.79616e-07
-4.90795e-07
8.71133e-07
-5.90614e-07
8.56644e-07
-6.9379e-07
8.29481e-07
-7.95856e-07
7.84843e-07
-8.93292e-07
7.16352e-07
-9.80011e-07
6.20874e-07
-1.04795e-06
4.97062e-07
-1.09106e-06
3.40616e-07
-1.1034e-06
1.53528e-07
-1.07642e-06
-8.28228e-08
-1.01421e-06
-3.33627e-07
-9.20243e-07
-5.77899e-07
-8.03543e-07
-8.06178e-07
-6.72746e-07
-1.0093e-06
-5.39895e-07
-1.17933e-06
-4.14392e-07
-1.30993e-06
-3.09702e-07
-1.39943e-06
-2.25124e-07
-1.45032e-06
-1.62078e-07
-1.4853e-06
-1.54604e-06
-4.86239e-08
8.43852e-07
-1.08903e-07
9.61272e-07
-1.7399e-07
9.56768e-07
-2.44203e-07
9.54753e-07
-3.21881e-07
9.54712e-07
-4.07476e-07
9.53772e-07
-5.02299e-07
9.46837e-07
-6.05635e-07
9.27734e-07
-7.16132e-07
8.88638e-07
-8.29359e-07
8.23143e-07
-9.39031e-07
7.26338e-07
-1.04065e-06
5.91268e-07
-1.12285e-06
4.1864e-07
-1.17942e-06
2.07055e-07
-1.20082e-06
-6.3438e-08
-1.18492e-06
-3.50681e-07
-1.13636e-06
-6.27467e-07
-1.06115e-06
-8.82309e-07
-9.67031e-07
-1.10466e-06
-8.62777e-07
-1.28482e-06
-7.57802e-07
-1.4148e-06
-6.64467e-07
-1.49005e-06
-6.06283e-07
-1.50541e-06
-6.40644e-07
-1.44375e-06
-1.19693e-06
-9.85429e-07
-4.06928e-08
8.80816e-07
-9.68637e-08
1.01319e-06
-1.56431e-07
1.01476e-06
-2.22726e-07
1.01945e-06
-2.97877e-07
1.02767e-06
-3.83049e-07
1.03659e-06
-4.80576e-07
1.04026e-06
-5.90158e-07
1.03195e-06
-7.09503e-07
1.00247e-06
-8.33958e-07
9.42417e-07
-9.58604e-07
8.42897e-07
-1.07092e-06
7.00693e-07
-1.16387e-06
5.07165e-07
-1.22511e-06
2.64868e-07
-1.24708e-06
-4.37893e-08
-1.22548e-06
-3.73857e-07
-1.16601e-06
-6.88136e-07
-1.07659e-06
-9.73134e-07
-9.65847e-07
-1.21687e-06
-8.42497e-07
-1.40917e-06
-7.15786e-07
-1.54189e-06
-5.95027e-07
-1.60753e-06
-4.92724e-07
-1.6008e-06
-4.23924e-07
-1.50883e-06
-1.30672e-06
-3.12666e-07
-3.07028e-08
9.06308e-07
-7.86363e-08
1.05875e-06
-1.31412e-07
1.0651e-06
-1.91675e-07
1.07837e-06
-2.6171e-07
1.09711e-06
-3.45002e-07
1.11761e-06
-4.43558e-07
1.13525e-06
-5.57729e-07
1.14164e-06
-6.85638e-07
1.12475e-06
-8.22133e-07
1.07256e-06
-9.56428e-07
9.74983e-07
-1.0812e-06
8.18889e-07
-1.18127e-06
6.03573e-07
-1.24437e-06
3.24798e-07
-1.26204e-06
-2.83373e-08
-1.23079e-06
-4.06626e-07
-1.15717e-06
-7.63082e-07
-1.05125e-06
-1.08045e-06
-9.2271e-07
-1.34695e-06
-7.80061e-07
-1.55316e-06
-6.29834e-07
-1.69062e-06
-4.79697e-07
-1.75497e-06
-3.36311e-07
-1.74049e-06
-1.88028e-07
-1.65166e-06
-1.51078e-06
1.37038e-08
-1.71707e-08
9.19128e-07
-5.5698e-08
1.09335e-06
-9.83077e-08
1.10666e-06
-1.49912e-07
1.12913e-06
-2.13133e-07
1.1595e-06
-2.9211e-07
1.1947e-06
-3.89393e-07
1.2298e-06
-5.06642e-07
1.25411e-06
-6.40617e-07
1.25379e-06
-7.84391e-07
1.21262e-06
-9.30245e-07
1.11347e-06
-1.06035e-06
9.47066e-07
-1.16276e-06
7.0232e-07
-1.22626e-06
3.85044e-07
-1.23827e-06
-1.87307e-08
-1.19276e-06
-4.5363e-07
-1.10353e-06
-8.53524e-07
-9.82351e-07
-1.20296e-06
-8.39095e-07
-1.49164e-06
-6.80344e-07
-1.71233e-06
-5.12477e-07
-1.85844e-06
-3.40272e-07
-1.92352e-06
-1.64087e-07
-1.91136e-06
2.30685e-08
-1.83929e-06
-1.72385e-06
2.36588e-07
-2.42303e-09
9.16627e-07
-2.54373e-08
1.11406e-06
-5.72144e-08
1.13564e-06
-9.74812e-08
1.16899e-06
-1.51054e-07
1.21287e-06
-2.2292e-07
1.26502e-06
-3.16559e-07
1.32035e-06
-4.32929e-07
1.36618e-06
-5.68972e-07
1.38499e-06
-7.18173e-07
1.35568e-06
-8.65138e-07
1.25907e-06
-9.98788e-07
1.07533e-06
-1.09999e-06
8.00038e-07
-1.1513e-06
4.33186e-07
-1.1472e-06
-2.50217e-08
-1.08784e-06
-5.14375e-07
-9.84215e-07
-9.58234e-07
-8.52372e-07
-1.33595e-06
-7.01432e-07
-1.64366e-06
-5.35743e-07
-1.8788e-06
-3.58435e-07
-2.03384e-06
-1.73829e-07
-2.10587e-06
1.73129e-08
-2.1007e-06
2.17045e-07
-2.03536e-06
-1.93054e-06
4.21673e-07
1.5804e-08
8.94364e-07
8.96142e-09
1.11565e-06
-7.50381e-09
1.15085e-06
-3.37031e-08
1.19495e-06
-7.56535e-08
1.25315e-06
-1.36994e-07
1.32539e-06
-2.23195e-07
1.40312e-06
-3.34388e-07
1.473e-06
-4.67756e-07
1.51309e-06
-6.12608e-07
1.49713e-06
-7.56286e-07
1.39621e-06
-8.77807e-07
1.19476e-06
-9.65202e-07
8.83976e-07
-9.94356e-07
4.58524e-07
-9.7249e-07
-4.9445e-08
-8.95842e-07
-5.9232e-07
-7.81195e-07
-1.0738e-06
-6.47196e-07
-1.47087e-06
-5.00095e-07
-1.79169e-06
-3.39194e-07
-2.03965e-06
-1.6563e-07
-2.20709e-06
1.92292e-08
-2.28782e-06
2.11096e-07
-2.28912e-06
4.0361e-07
-2.22892e-06
-2.12362e-06
5.97379e-07
3.6751e-08
8.51948e-07
4.8691e-08
1.10075e-06
4.89664e-08
1.14794e-06
3.91379e-08
1.20308e-06
1.39393e-08
1.27889e-06
-3.44808e-08
1.37146e-06
-1.08625e-07
1.47363e-06
-2.09335e-07
1.56908e-06
-3.32692e-07
1.63126e-06
-4.66531e-07
1.62503e-06
-5.88939e-07
1.51668e-06
-6.83837e-07
1.28458e-06
-7.42643e-07
9.38602e-07
-7.30693e-07
4.43201e-07
-6.94588e-07
-8.77094e-08
-6.03424e-07
-6.84531e-07
-4.85607e-07
-1.19228e-06
-3.61286e-07
-1.59585e-06
-2.31346e-07
-1.92217e-06
-8.9218e-08
-2.18212e-06
6.96638e-08
-2.36411e-06
2.41216e-07
-2.45802e-06
4.18385e-07
-2.46545e-06
5.98151e-07
-2.40604e-06
-2.30287e-06
7.75919e-07
6.04101e-08
7.82172e-07
9.26547e-08
1.06318e-06
1.12464e-07
1.12679e-06
1.2193e-07
1.19328e-06
1.13943e-07
1.285e-06
8.36004e-08
1.39947e-06
2.68127e-08
1.5273e-06
-5.76732e-08
1.6482e-06
-1.62556e-07
1.73077e-06
-2.70928e-07
1.72906e-06
-3.59394e-07
1.59847e-06
-4.07347e-07
1.33005e-06
-4.35199e-07
9.62979e-07
-3.5955e-07
3.59939e-07
-3.14117e-07
-1.35817e-07
-2.19704e-07
-7.79813e-07
-1.12581e-07
-1.29985e-06
-8.94377e-09
-1.69992e-06
9.53667e-08
-2.02692e-06
2.11678e-07
-2.29799e-06
3.43759e-07
-2.496e-06
4.89865e-07
-2.60206e-06
6.44473e-07
-2.61784e-06
8.02167e-07
-2.56488e-06
-2.46201e-06
9.62069e-07
8.47199e-08
6.92559e-07
1.44212e-07
1.00135e-06
1.83778e-07
1.0842e-06
2.12601e-07
1.16299e-06
2.25596e-07
1.2726e-06
2.15398e-07
1.40734e-06
1.80287e-07
1.55846e-06
1.2203e-07
1.70124e-06
4.20825e-08
1.80473e-06
-2.87692e-08
1.79332e-06
-6.28065e-08
1.6301e-06
-3.13602e-08
1.29137e-06
7.80194e-08
8.45395e-07
1.66055e-07
2.62913e-07
1.55098e-07
-1.27725e-07
2.12186e-07
-8.3792e-07
2.96092e-07
-1.38425e-06
3.81184e-07
-1.78537e-06
4.63521e-07
-2.10941e-06
5.49249e-07
-2.38383e-06
6.47814e-07
-2.59309e-06
7.61286e-07
-2.71482e-06
8.8593e-07
-2.74219e-06
1.01938e-06
-2.69619e-06
-2.59955e-06
1.15566e-06
1.00439e-07
5.79686e-07
1.97392e-07
8.98251e-07
2.61589e-07
1.01871e-06
3.12847e-07
1.11324e-06
3.45367e-07
1.23646e-06
3.59541e-07
1.39232e-06
3.51024e-07
1.5629e-06
3.20835e-07
1.72643e-06
2.82259e-07
1.83745e-06
2.62593e-07
1.80784e-06
2.74699e-07
1.60806e-06
3.33911e-07
1.23017e-06
4.09323e-07
7.63054e-07
4.12758e-07
2.52452e-07
5.28132e-07
-2.45251e-07
6.1902e-07
-9.29637e-07
7.04173e-07
-1.46981e-06
7.8263e-07
-1.86408e-06
8.48616e-07
-2.17557e-06
9.07434e-07
-2.44219e-06
9.71386e-07
-2.65703e-06
1.05014e-06
-2.79205e-06
1.14221e-06
-2.83263e-06
1.24453e-06
-2.79981e-06
-2.70995e-06
1.35575e-06
9.63897e-08
4.77991e-07
2.5141e-07
7.41113e-07
3.4596e-07
9.23003e-07
4.15098e-07
1.04057e-06
4.71209e-07
1.18263e-06
5.08353e-07
1.35211e-06
5.28627e-07
1.53871e-06
5.35933e-07
1.71443e-06
5.52285e-07
1.81487e-06
5.7479e-07
1.77835e-06
6.20048e-07
1.56148e-06
6.82417e-07
1.15808e-06
7.54585e-07
6.8661e-07
8.27068e-07
1.7702e-07
9.70794e-07
-3.90253e-07
1.05781e-06
-1.01732e-06
1.12867e-06
-1.54103e-06
1.19334e-06
-1.92897e-06
1.24203e-06
-2.22428e-06
1.2751e-06
-2.47533e-06
1.30637e-06
-2.68703e-06
1.34793e-06
-2.83328e-06
1.40405e-06
-2.88877e-06
1.47564e-06
-2.86945e-06
-2.79284e-06
1.55731e-06
5.72103e-08
4.01282e-07
2.96466e-07
4.96503e-07
4.32508e-07
7.85431e-07
5.23002e-07
9.52166e-07
5.93293e-07
1.10864e-06
6.51712e-07
1.29139e-06
7.01022e-07
1.48659e-06
7.5089e-07
1.6592e-06
8.13444e-07
1.74761e-06
8.87346e-07
1.69999e-06
9.7404e-07
1.46481e-06
1.06688e-06
1.06522e-06
1.16645e-06
5.82276e-07
1.28895e-06
5.19544e-08
1.41156e-06
-5.1398e-07
1.4883e-06
-1.09461e-06
1.54735e-06
-1.60038e-06
1.59793e-06
-1.97968e-06
1.62899e-06
-2.25542e-06
1.63811e-06
-2.48395e-06
1.6373e-06
-2.68634e-06
1.64361e-06
-2.83836e-06
1.66557e-06
-2.90932e-06
1.70266e-06
-2.908e-06
-2.84461e-06
1.75536e-06
2.14645e-08
3.70481e-07
3.31935e-07
1.84497e-07
5.21952e-07
5.93811e-07
6.26152e-07
8.44036e-07
7.08631e-07
1.02827e-06
7.82221e-07
1.21529e-06
8.56607e-07
1.40851e-06
9.43453e-07
1.56813e-06
1.04823e-06
1.63702e-06
1.17482e-06
1.56694e-06
1.31694e-06
1.32262e-06
1.45122e-06
9.2212e-07
1.5822e-06
4.49308e-07
1.70943e-06
-7.65863e-08
1.81253e-06
-6.17745e-07
1.88547e-06
-1.1679e-06
1.94102e-06
-1.65609e-06
1.98087e-06
-2.01959e-06
1.99486e-06
-2.26932e-06
1.97953e-06
-2.46865e-06
1.94943e-06
-2.65508e-06
1.92327e-06
-2.81198e-06
1.91287e-06
-2.89921e-06
1.91891e-06
-2.91202e-06
-2.86762e-06
1.94073e-06
1.30268e-07
2.24342e-07
3.65915e-07
-5.89809e-08
5.96218e-07
3.61002e-07
7.21866e-07
7.2264e-07
8.06818e-07
9.37643e-07
8.93127e-07
1.12869e-06
9.895e-07
1.30867e-06
1.10753e-06
1.44577e-06
1.25222e-06
1.48812e-06
1.42287e-06
1.39239e-06
1.59896e-06
1.13719e-06
1.76759e-06
7.54447e-07
1.91373e-06
2.99769e-07
2.04538e-06
-2.09551e-07
2.15643e-06
-7.29345e-07
2.24167e-06
-1.25335e-06
2.3001e-06
-1.71457e-06
2.32967e-06
-2.04912e-06
2.32453e-06
-2.26411e-06
2.28457e-06
-2.42815e-06
2.22574e-06
-2.59638e-06
2.17075e-06
-2.7559e-06
2.13261e-06
-2.85964e-06
2.10958e-06
-2.89057e-06
-2.86135e-06
2.1044e-06
2.15286e-07
7.27212e-09
3.73783e-07
-2.19019e-07
6.2368e-07
1.11681e-07
7.78233e-07
5.61145e-07
8.78664e-07
8.4133e-07
9.76054e-07
1.02822e-06
1.09447e-06
1.18733e-06
1.24048e-06
1.29643e-06
1.41448e-06
1.30871e-06
1.61012e-06
1.19111e-06
1.81196e-06
9.35948e-07
1.99092e-06
5.67966e-07
2.16168e-06
1.27906e-07
2.31823e-06
-3.66761e-07
2.45431e-06
-8.657e-07
2.55597e-06
-1.35506e-06
2.61407e-06
-1.77262e-06
2.62735e-06
-2.06229e-06
2.59724e-06
-2.23378e-06
2.53065e-06
-2.3615e-06
2.4481e-06
-2.51265e-06
2.36971e-06
-2.67731e-06
2.30735e-06
-2.79767e-06
2.26455e-06
-2.84562e-06
-2.83488e-06
2.23697e-06
2.16656e-07
-2.14832e-07
3.69189e-07
-3.74773e-07
5.89384e-07
-1.12416e-07
7.82515e-07
3.72534e-07
9.00997e-07
7.1782e-07
1.01606e-06
9.12175e-07
1.15602e-06
1.04593e-06
1.32645e-06
1.12221e-06
1.52537e-06
1.10696e-06
1.742e-06
9.7139e-07
1.95592e-06
7.1391e-07
2.16056e-06
3.64534e-07
2.36525e-06
-7.88314e-08
2.55085e-06
-5.5304e-07
2.70656e-06
-1.02158e-06
2.8126e-06
-1.46106e-06
2.85673e-06
-1.81661e-06
2.84212e-06
-2.04748e-06
2.78016e-06
-2.17163e-06
2.68899e-06
-2.26968e-06
2.59104e-06
-2.41482e-06
2.50305e-06
-2.58826e-06
2.43034e-06
-2.72345e-06
2.3721e-06
-2.78895e-06
-2.79541e-06
2.33387e-06
1.73038e-07
-3.85484e-07
2.80649e-07
-4.8043e-07
4.70118e-07
-3.00744e-07
6.85592e-07
1.52114e-07
8.52965e-07
5.54458e-07
9.91199e-07
7.7271e-07
1.15131e-06
8.83726e-07
1.34524e-06
9.26139e-07
1.5665e-06
8.81569e-07
1.80255e-06
7.30872e-07
2.04079e-06
4.76584e-07
2.27918e-06
1.20765e-07
2.51433e-06
-3.14459e-07
2.71542e-06
-7.54402e-07
2.86668e-06
-1.17286e-06
2.94952e-06
-1.54377e-06
2.96452e-06
-1.8314e-06
2.92182e-06
-2.00454e-06
2.83442e-06
-2.08387e-06
2.73131e-06
-2.16641e-06
2.63943e-06
-2.32173e-06
2.56103e-06
-2.50958e-06
2.49099e-06
-2.65382e-06
2.43261e-06
-2.72829e-06
-2.75381e-06
2.39008e-06
1.08934e-07
-4.9371e-07
1.29976e-07
-5.02545e-07
2.533e-07
-4.22304e-07
4.78365e-07
-6.00301e-08
6.93801e-07
3.3471e-07
8.71249e-07
5.96682e-07
1.05488e-06
6.99573e-07
1.26643e-06
7.12862e-07
1.50513e-06
6.41276e-07
1.75855e-06
4.75407e-07
2.02019e-06
2.08894e-07
2.299e-06
-1.57169e-07
2.55109e-06
-5.67627e-07
2.7502e-06
-9.53811e-07
2.87906e-06
-1.30171e-06
2.93548e-06
-1.60001e-06
2.92151e-06
-1.81717e-06
2.84484e-06
-1.92755e-06
2.74061e-06
-1.97931e-06
2.6554e-06
-2.08044e-06
2.5976e-06
-2.26392e-06
2.54804e-06
-2.45893e-06
2.49522e-06
-2.59938e-06
2.44404e-06
-2.67852e-06
-2.71681e-06
2.4084e-06
2.76813e-08
-5.19676e-07
-2.0391e-08
-4.48758e-07
-1.89953e-08
-4.11999e-07
1.16041e-07
-1.98888e-07
3.58301e-07
1.09938e-07
6.07374e-07
3.51611e-07
8.29736e-07
4.78816e-07
1.0534e-06
4.89426e-07
1.29139e-06
4.00348e-07
1.54785e-06
2.15104e-07
1.8405e-06
-8.38475e-08
2.13204e-06
-4.52022e-07
2.37707e-06
-8.13055e-07
2.56174e-06
-1.13854e-06
2.6696e-06
-1.40939e-06
2.69385e-06
-1.62393e-06
2.64787e-06
-1.77077e-06
2.56718e-06
-1.84641e-06
2.50861e-06
-1.92017e-06
2.49571e-06
-2.06722e-06
2.49997e-06
-2.26684e-06
2.48689e-06
-2.44549e-06
2.45408e-06
-2.56683e-06
2.41946e-06
-2.64159e-06
-2.6929e-06
2.39484e-06
-7.24113e-08
-4.46209e-07
-1.97873e-07
-3.19558e-07
-2.96956e-07
-3.07267e-07
-2.48039e-07
-2.1916e-07
-1.35208e-07
1.03045e-08
1.22955e-07
1.05134e-07
3.95376e-07
2.14984e-07
6.15874e-07
2.70156e-07
8.2991e-07
1.83762e-07
1.07512e-06
-3.45392e-08
1.36114e-06
-3.75349e-07
1.63789e-06
-7.29416e-07
1.86746e-06
-1.04344e-06
2.03e-06
-1.30114e-06
2.13111e-06
-1.51021e-06
2.17918e-06
-1.67151e-06
2.19139e-06
-1.78241e-06
2.21229e-06
-1.86668e-06
2.27233e-06
-1.97965e-06
2.34976e-06
-2.14371e-06
2.39858e-06
-2.31556e-06
2.40555e-06
-2.45128e-06
2.38869e-06
-2.54835e-06
2.36868e-06
-2.62275e-06
-2.68257e-06
2.35974e-06
-1.81331e-07
-2.61912e-07
-3.80494e-07
-1.13328e-07
-6.15579e-07
-6.13552e-08
-7.77834e-07
-4.92756e-08
-7.85813e-07
3.98375e-08
-7.48038e-07
8.45051e-08
-6.66375e-07
1.46213e-07
-4.98943e-07
1.047e-07
-1.97262e-07
-1.25427e-07
2.04746e-07
-4.43858e-07
6.28248e-07
-8.01966e-07
9.99777e-07
-1.1041e-06
1.29948e-06
-1.34392e-06
1.53131e-06
-1.53306e-06
1.70378e-06
-1.68232e-06
1.83086e-06
-1.79802e-06
1.93709e-06
-1.88795e-06
2.05164e-06
-1.98054e-06
2.17288e-06
-2.10015e-06
2.26396e-06
-2.23436e-06
2.3059e-06
-2.35612e-06
2.31195e-06
-2.45691e-06
2.30624e-06
-2.54276e-06
2.30471e-06
-2.61897e-06
-2.68799e-06
2.30964e-06
-2.99739e-07
3.76453e-08
-5.63549e-07
1.53606e-07
-8.58237e-07
2.39427e-07
-1.12215e-06
2.28501e-07
-1.24653e-06
1.71578e-07
-1.22927e-06
7.92715e-08
-1.0155e-06
-6.03547e-08
-6.44922e-07
-2.64082e-07
-2.53629e-07
-5.19532e-07
1.60983e-07
-8.64487e-07
5.60304e-07
-1.20645e-06
9.13768e-07
-1.45917e-06
1.20452e-06
-1.63569e-06
1.4351e-06
-1.76376e-06
1.61406e-06
-1.86092e-06
1.7574e-06
-1.94074e-06
1.88714e-06
-2.01697e-06
2.00898e-06
-2.10167e-06
2.10552e-06
-2.19605e-06
2.16345e-06
-2.29132e-06
2.19008e-06
-2.38258e-06
2.2044e-06
-2.46999e-06
2.21796e-06
-2.55474e-06
2.23265e-06
-2.63457e-06
-2.70502e-06
2.25106e-06
-3.7287e-07
4.13305e-07
-6.85614e-07
4.70685e-07
-9.45719e-07
5.05915e-07
-1.14276e-06
4.29663e-07
-1.19867e-06
2.40508e-07
-1.06791e-06
-4.16966e-08
-7.92868e-07
-3.28461e-07
-4.56929e-07
-5.97516e-07
-8.56219e-08
-8.93798e-07
3.05517e-07
-1.25935e-06
6.61691e-07
-1.56525e-06
9.64652e-07
-1.7644e-06
1.21345e-06
-1.88519e-06
1.41235e-06
-1.96274e-06
1.57244e-06
-2.02065e-06
1.70626e-06
-2.07398e-06
1.82078e-06
-2.1308e-06
1.91374e-06
-2.19393e-06
1.98176e-06
-2.26334e-06
2.02984e-06
-2.33893e-06
2.06847e-06
-2.4198e-06
2.10263e-06
-2.50372e-06
2.13316e-06
-2.58522e-06
2.16124e-06
-2.66055e-06
-2.73073e-06
2.18661e-06
-3.11319e-07
7.24689e-07
-5.97228e-07
7.58142e-07
-8.13288e-07
7.26142e-07
-9.28179e-07
5.5394e-07
-8.97248e-07
2.1731e-07
-7.33974e-07
-1.95604e-07
-4.88357e-07
-5.68216e-07
-2.03259e-07
-8.82208e-07
1.05756e-07
-1.20496e-06
4.22397e-07
-1.57968e-06
7.2085e-07
-1.86658e-06
9.78327e-07
-2.02313e-06
1.18992e-06
-2.09757e-06
1.3613e-06
-2.13419e-06
1.50104e-06
-2.16005e-06
1.6164e-06
-2.18875e-06
1.71178e-06
-2.22551e-06
1.79091e-06
-2.27237e-06
1.85862e-06
-2.33041e-06
1.91916e-06
-2.39849e-06
1.97257e-06
-2.47302e-06
2.01847e-06
-2.54837e-06
2.05666e-06
-2.62196e-06
2.08826e-06
-2.69288e-06
-2.7595e-06
2.11832e-06
-1.96675e-07
9.24746e-07
-3.7926e-07
9.4515e-07
-5.04494e-07
8.56568e-07
-5.22313e-07
5.77298e-07
-4.30461e-07
1.42623e-07
-2.78556e-07
-3.37466e-07
-7.9398e-08
-7.63843e-07
1.33822e-07
-1.09613e-06
3.59119e-07
-1.43365e-06
5.99266e-07
-1.82249e-06
8.33054e-07
-2.10245e-06
1.035e-06
-2.22681e-06
1.20098e-06
-2.26408e-06
1.33636e-06
-2.26959e-06
1.44857e-06
-2.27192e-06
1.54413e-06
-2.28376e-06
1.62867e-06
-2.3094e-06
1.70624e-06
-2.34927e-06
1.7779e-06
-2.40135e-06
1.84178e-06
-2.46191e-06
1.89669e-06
-2.52658e-06
1.94206e-06
-2.59331e-06
1.98019e-06
-2.65996e-06
2.01481e-06
-2.72561e-06
-2.79152e-06
2.04661e-06
-6.40059e-08
9.89512e-07
-1.33309e-07
1.01715e-06
-1.39616e-07
8.68638e-07
-6.59823e-08
5.21366e-07
3.84412e-09
8.8545e-08
1.24884e-07
-4.48987e-07
2.91748e-07
-9.29261e-07
4.55895e-07
-1.26205e-06
6.23845e-07
-1.60397e-06
8.02259e-07
-2.00381e-06
9.72956e-07
-2.27538e-06
1.11689e-06
-2.37169e-06
1.23497e-06
-2.38279e-06
1.33432e-06
-2.36897e-06
1.42161e-06
-2.35887e-06
1.502e-06
-2.3636e-06
1.57817e-06
-2.38494e-06
1.64993e-06
-2.42037e-06
1.71529e-06
-2.46609e-06
1.77293e-06
-2.51862e-06
1.8225e-06
-2.5759e-06
1.8661e-06
-2.6357e-06
1.90516e-06
-2.6977e-06
1.94023e-06
-2.76123e-06
-2.82431e-06
1.9742e-06
4.92351e-08
9.43804e-07
7.38461e-08
9.97592e-07
1.26594e-07
8.24513e-07
1.66147e-07
4.8984e-07
2.43349e-07
3.42909e-08
4.06539e-07
-6.08774e-07
5.7102e-07
-1.09337e-06
7.23442e-07
-1.41585e-06
8.59822e-07
-1.74311e-06
9.92182e-07
-2.13819e-06
1.10671e-06
-2.39148e-06
1.19572e-06
-2.46213e-06
1.27042e-06
-2.45783e-06
1.33862e-06
-2.4371e-06
1.40477e-06
-2.42465e-06
1.47049e-06
-2.42878e-06
1.53494e-06
-2.44877e-06
1.59622e-06
-2.481e-06
1.65284e-06
-2.52202e-06
1.70421e-06
-2.56952e-06
1.75118e-06
-2.62157e-06
1.79355e-06
-2.67766e-06
1.83212e-06
-2.73603e-06
1.86833e-06
-2.79578e-06
-2.85771e-06
1.90161e-06
1.32666e-07
8.1081e-07
2.40896e-07
8.91489e-07
3.28097e-07
7.42042e-07
3.86841e-07
4.44089e-07
4.95917e-07
-7.01862e-08
6.43953e-07
-7.53015e-07
7.93059e-07
-1.24146e-06
9.23042e-07
-1.54711e-06
1.03959e-06
-1.86108e-06
1.1427e-06
-2.24337e-06
1.21172e-06
-2.46223e-06
1.25548e-06
-2.50645e-06
1.29533e-06