/*--------------------------------*- C++ -*----------------------------------*\
  =========                 |
  \\      /  F ield         | OpenFOAM: The Open Source CFD Toolbox
   \\    /   O peration     | Website:  https://openfoam.org
    \\  /    A nd           | Version:  13
     \\/     M anipulation  |
\*---------------------------------------------------------------------------*/
FoamFile
{
    format      ascii;
    class       volVectorField;
    location    "6";
    object      U;
}
// * * * * * * * * * * * * * * * * * * * * * * * * * * * * * * * * * * * * * //

dimensions      [0 1 -1 0 0 0 0];

internalField   nonuniform List<vector> 
6440
(
(1.29344e-07 -2.29527e-07 0)
(3.16103e-07 -3.00057e-07 0)
(5.74015e-07 -2.59578e-07 -1.31165e-20)
(7.60566e-07 -2.75692e-07 1.30776e-20)
(9.54525e-07 -3.37772e-07 0)
(1.13042e-06 -4.12254e-07 -2.59015e-20)
(1.28138e-06 -4.86246e-07 2.57504e-20)
(1.40086e-06 -5.52161e-07 0)
(1.4787e-06 -6.05649e-07 5.07112e-20)
(1.50461e-06 -6.40225e-07 -5.02778e-20)
(1.47506e-06 -6.53608e-07 -4.97895e-20)
(1.39462e-06 -6.39403e-07 -1.29758e-24)
(1.26711e-06 -5.92782e-07 -8.12073e-24)
(1.08899e-06 -5.0733e-07 4.8168e-20)
(8.77401e-07 -3.82611e-07 4.75984e-20)
(6.55571e-07 -2.28016e-07 -4.69653e-20)
(4.26181e-07 -4.96494e-08 0)
(1.90883e-07 1.37957e-07 9.14408e-20)
(-4.53328e-08 3.24217e-07 7.06808e-23)
(-2.74203e-07 5.12589e-07 -8.86861e-20)
(-4.83341e-07 6.88317e-07 8.73758e-20)
(-6.55266e-07 7.94513e-07 -1.71865e-19)
(-9.82317e-07 8.10001e-07 8.44707e-20)
(-9.53188e-07 2.8829e-07 -8.31078e-20)
(-2.89763e-07 -3.37569e-07 -2.62422e-23)
(1.15547e-07 -6.32641e-07 0)
(3.00288e-07 -8.54743e-07 0)
(5.71088e-07 -7.8967e-07 -1.38505e-20)
(8.22948e-07 -8.37221e-07 1.38101e-20)
(1.10608e-06 -9.61364e-07 0)
(1.40678e-06 -1.09778e-06 -2.73533e-20)
(1.72474e-06 -1.22855e-06 2.71962e-20)
(2.03472e-06 -1.33968e-06 0)
(2.31098e-06 -1.41833e-06 0)
(2.53015e-06 -1.45319e-06 0)
(2.68636e-06 -1.43994e-06 0)
(2.78694e-06 -1.3788e-06 -5.20392e-20)
(2.82237e-06 -1.26831e-06 5.14724e-20)
(2.78241e-06 -1.1058e-06 0)
(2.66517e-06 -8.88878e-07 5.02648e-20)
(2.46821e-06 -6.24988e-07 -4.96057e-20)
(2.18167e-06 -3.22111e-07 0)
(1.81741e-06 5.70615e-09 0)
(1.43645e-06 3.37132e-07 9.52765e-20)
(1.07881e-06 6.50587e-07 -9.37854e-20)
(7.28025e-07 9.21652e-07 9.25053e-20)
(4.01873e-07 1.05386e-06 -9.09575e-20)
(-2.23808e-07 1.03148e-06 -8.96627e-20)
(-7.29168e-07 3.09958e-07 -1.33566e-22)
(-6.41963e-08 -9.39093e-07 6.52272e-20)
(1.05546e-07 -1.01788e-06 0)
(3.52219e-07 -1.42919e-06 0)
(6.88072e-07 -1.43443e-06 -1.39081e-20)
(1.04505e-06 -1.57948e-06 1.38701e-20)
(1.4494e-06 -1.79564e-06 0)
(1.86656e-06 -1.99936e-06 -2.74803e-20)
(2.28331e-06 -2.16273e-06 5.46487e-20)
(2.68669e-06 -2.27007e-06 -2.71458e-20)
(3.05306e-06 -2.31056e-06 5.38445e-20)
(3.35412e-06 -2.27697e-06 -5.34172e-20)
(3.57151e-06 -2.15912e-06 -5.28984e-20)
(3.6936e-06 -1.96102e-06 1.77854e-23)
(3.70862e-06 -1.68674e-06 5.18384e-20)
(3.60754e-06 -1.33838e-06 5.12575e-20)
(3.38331e-06 -9.26577e-07 1.10794e-23)
(3.0288e-06 -4.57404e-07 -5.00393e-20)
(2.55606e-06 6.66846e-08 0)
(2.04038e-06 6.09203e-07 9.76401e-20)
(1.54733e-06 1.13601e-06 -9.62455e-20)
(1.06799e-06 1.61178e-06 0)
(6.03559e-07 1.9755e-06 9.37959e-20)
(2.31405e-07 2.10383e-06 -1.8479e-19)
(-3.41809e-07 1.99443e-06 9.09701e-20)
(-8.23275e-07 1.20383e-06 -8.97885e-20)
(6.10065e-08 -5.20581e-07 6.72314e-20)
(1.05964e-07 -1.4286e-06 0)
(3.94469e-07 -2.03538e-06 0)
(7.6272e-07 -2.15005e-06 -1.39119e-20)
(1.16751e-06 -2.40893e-06 1.38761e-20)
(1.61367e-06 -2.70667e-06 0)
(2.07388e-06 -2.95445e-06 -2.74988e-20)
(2.54001e-06 -3.12275e-06 5.46998e-20)
(2.97332e-06 -3.18735e-06 -2.71796e-20)
(3.33657e-06 -3.13798e-06 0)
(3.61739e-06 -2.97921e-06 0)
(3.79981e-06 -2.71407e-06 0)
(3.86617e-06 -2.35852e-06 -5.25026e-20)
(3.81056e-06 -1.93296e-06 5.19932e-20)
(3.60796e-06 -1.43302e-06 5.14277e-20)
(3.24733e-06 -8.5922e-07 -5.08581e-20)
(2.76958e-06 -2.32336e-07 0)
(2.21445e-06 4.28113e-07 9.94148e-20)
(1.63862e-06 1.08024e-06 -9.81263e-20)
(1.07837e-06 1.69163e-06 0)
(5.22819e-07 2.22037e-06 0)
(1.88185e-08 2.59959e-06 0)
(-3.25402e-07 2.68566e-06 0)
(-7.6877e-07 2.4902e-06 0)
(-1.15964e-06 1.70901e-06 -9.09333e-20)
(3.15298e-08 -2.96008e-07 -6.96038e-23)
(1.07937e-07 -1.85948e-06 0)
(4.1056e-07 -2.63049e-06 0)
(7.60261e-07 -2.85044e-06 -1.38718e-20)
(1.15048e-06 -3.20801e-06 1.38382e-20)
(1.57848e-06 -3.56213e-06 0)
(1.9993e-06 -3.81156e-06 -2.74294e-20)
(2.41077e-06 -3.93063e-06 5.45752e-20)
(2.79435e-06 -3.9063e-06 -2.71256e-20)
(3.1136e-06 -3.73426e-06 0)
(3.35405e-06 -3.42662e-06 0)
(3.4906e-06 -3.01164e-06 0)
(3.48695e-06 -2.50843e-06 -5.24557e-20)
(3.35714e-06 -1.9482e-06 5.19753e-20)
(3.11299e-06 -1.35549e-06 5.14257e-20)
(2.74143e-06 -7.26813e-07 -5.08873e-20)
(2.24686e-06 -6.1487e-08 0)
(1.64345e-06 6.35969e-07 9.95809e-20)
(1.02321e-06 1.30852e-06 -9.83588e-20)
(4.30334e-07 1.8842e-06 0)
(-1.36234e-07 2.35941e-06 0)
(-6.31133e-07 2.69925e-06 0)
(-9.60435e-07 2.77743e-06 0)
(-1.29366e-06 2.5755e-06 0)
(-1.59105e-06 1.89641e-06 -9.17004e-20)
(-5.85809e-08 -2.12807e-07 7.03405e-20)
(1.06676e-07 -2.28416e-06 0)
(3.9899e-07 -3.16322e-06 0)
(6.90445e-07 -3.46067e-06 -1.37967e-20)
(1.00908e-06 -3.88157e-06 1.37652e-20)
(1.36138e-06 -4.26428e-06 0)
(1.70929e-06 -4.50236e-06 -2.72898e-20)
(2.0442e-06 -4.55783e-06 5.43098e-20)
(2.34573e-06 -4.42521e-06 -2.7001e-20)
(2.59503e-06 -4.11404e-06 5.35777e-20)
(2.77252e-06 -3.652e-06 -5.32218e-20)
(2.85781e-06 -3.0878e-06 0)
(2.84557e-06 -2.46568e-06 -5.22677e-20)
(2.73019e-06 -1.81955e-06 3.34355e-23)
(2.50446e-06 -1.18527e-06 1.02582e-19)
(2.16258e-06 -5.76007e-07 -5.07731e-20)
(1.71896e-06 3.7596e-09 0)
(1.18098e-06 5.72825e-07 9.94463e-20)
(5.31375e-07 1.16762e-06 1.12136e-22)
(-1.46964e-07 1.71423e-06 1.59452e-22)
(-7.42571e-07 2.1203e-06 -9.61344e-20)
(-1.2378e-06 2.41683e-06 0)
(-1.54764e-06 2.51137e-06 0)
(-1.78905e-06 2.3659e-06 0)
(-2.0249e-06 1.85784e-06 -9.21408e-20)
(-1.6928e-07 -2.33917e-07 7.14968e-20)
(1.02785e-07 -2.68053e-06 0)
(3.71545e-07 -3.59584e-06 0)
(5.91402e-07 -3.93136e-06 -1.36936e-20)
(8.1334e-07 -4.38341e-06 1.36641e-20)
(1.04857e-06 -4.76832e-06 2.72142e-20)
(1.28592e-06 -4.9798e-06 -5.42114e-20)
(1.51517e-06 -4.97295e-06 5.39315e-20)
(1.72801e-06 -4.74453e-06 -2.68198e-20)
(1.92016e-06 -4.30802e-06 0)
(2.07469e-06 -3.71672e-06 5.28323e-20)
(2.17163e-06 -3.03366e-06 -5.24671e-20)
(2.19497e-06 -2.32463e-06 -5.19654e-20)
(2.1313e-06 -1.64526e-06 5.15412e-20)
(1.96855e-06 -1.03437e-06 5.10182e-20)
(1.69574e-06 -5.06392e-07 -5.05411e-20)
(1.31818e-06 -5.86468e-08 0)
(8.50941e-07 3.26119e-07 9.90637e-20)
(2.75847e-07 7.09331e-07 -9.79742e-20)
(-4.59111e-07 1.17227e-06 0)
(-1.16652e-06 1.56309e-06 9.6142e-20)
(-1.70038e-06 1.85466e-06 -9.49426e-20)
(-2.0336e-06 2.02172e-06 0)
(-2.23013e-06 1.99036e-06 0)
(-2.42957e-06 1.67734e-06 -9.23028e-20)
(-2.73081e-07 -3.36587e-07 -1.02855e-22)
(9.72426e-08 -3.03713e-06 0)
(3.35232e-07 -3.91393e-06 0)
(4.75274e-07 -4.24471e-06 -1.35686e-20)
(5.93202e-07 -4.70631e-06 1.35411e-20)
(7.0563e-07 -5.08465e-06 0)
(8.24046e-07 -5.27325e-06 -2.6854e-20)
(9.46157e-07 -5.2186e-06 2.67466e-20)
(1.08616e-06 -4.90217e-06 0)
(1.24744e-06 -4.36163e-06 0)
(1.4022e-06 -3.66906e-06 0)
(1.53319e-06 -2.91143e-06 0)
(1.62264e-06 -2.17139e-06 -5.15718e-20)
(1.65003e-06 -1.51323e-06 5.11741e-20)
(1.594e-06 -9.77557e-07 0)
(1.43344e-06 -5.76598e-07 0)
(1.15758e-06 -2.94958e-07 0)
(7.74547e-07 -1.03816e-07 0)
(2.65147e-07 7.09671e-08 0)
(-4.81689e-07 3.66605e-07 9.66178e-20)
(-1.29264e-06 7.59245e-07 -9.55182e-20)
(-1.92667e-06 1.10222e-06 0)
(-2.32699e-06 1.3938e-06 0)
(-2.54047e-06 1.53751e-06 0)
(-2.74917e-06 1.43861e-06 -9.22294e-20)
(-3.4755e-07 -4.80366e-07 7.31408e-20)
(9.12595e-08 -3.34979e-06 0)
(2.9815e-07 -4.12224e-06 0)
(3.5898e-07 -4.41428e-06 -1.34267e-20)
(3.8164e-07 -4.87667e-06 1.34011e-20)
(3.8141e-07 -5.25755e-06 0)
(3.82876e-07 -5.43466e-06 -2.65803e-20)
(4.28125e-07 -5.34318e-06 5.29293e-20)
(5.33107e-07 -4.96538e-06 -2.63334e-20)
(6.83335e-07 -4.35837e-06 0)
(8.62204e-07 -3.60815e-06 0)
(1.05357e-06 -2.82021e-06 5.15179e-20)
(1.23753e-06 -2.08957e-06 -1.02278e-19)
(1.38922e-06 -1.48731e-06 5.0734e-20)
(1.47747e-06 -1.05577e-06 5.02318e-20)
(1.47012e-06 -8.03901e-07 -4.9812e-20)
(1.33524e-06 -7.02875e-07 0)
(1.06034e-06 -7.00998e-07 -9.7731e-20)
(6.13468e-07 -7.08661e-07 9.67663e-20)
(-9.48322e-08 -5.7191e-07 0)
(-9.77139e-07 -2.12541e-07 0)
(-1.76404e-06 2.52622e-07 0)
(-2.29117e-06 7.35936e-07 9.35435e-20)
(-2.60005e-06 1.11779e-06 -9.24154e-20)
(-2.89056e-06 1.26317e-06 -9.19587e-20)
(-3.50198e-07 -6.02964e-07 7.36757e-20)
(8.25875e-08 -3.61468e-06 0)
(2.54644e-07 -4.22706e-06 0)
(2.36437e-07 -4.44636e-06 0)
(1.8319e-07 -4.89304e-06 0)
(1.20682e-07 -5.30184e-06 0)
(7.17591e-08 -5.49844e-06 0)
(8.37943e-08 -5.40412e-06 0)
(1.74966e-07 -5.01306e-06 0)
(3.47727e-07 -4.38857e-06 -5.17035e-20)
(5.87041e-07 -3.63021e-06 5.14313e-20)
(8.72192e-07 -2.85192e-06 0)
(1.18722e-06 -2.15878e-06 0)
(1.50083e-06 -1.62678e-06 0)
(1.77222e-06 -1.30341e-06 0)
(1.95889e-06 -1.19424e-06 0)
(2.01434e-06 -1.26004e-06 0)
(1.89484e-06 -1.425e-06 0)
(1.54944e-06 -1.57797e-06 -9.59962e-20)
(8.66896e-07 -1.53684e-06 9.50547e-20)
(-6.64339e-08 -1.19722e-06 0)
(-9.88408e-07 -5.83539e-07 -9.36318e-20)
(-1.72009e-06 1.83462e-07 9.25953e-20)
(-2.20524e-06 8.52687e-07 0)
(-2.71648e-06 1.25163e-06 0)
(-2.5095e-07 -6.21202e-07 0)
(7.53583e-08 -3.83416e-06 0)
(2.283e-07 -4.2502e-06 0)
(1.65819e-07 -4.37745e-06 0)
(6.0403e-08 -4.80066e-06 0)
(-2.44447e-08 -5.25183e-06 0)
(-6.32714e-08 -5.52185e-06 0)
(-3.09052e-08 -5.49217e-06 2.58418e-20)
(1.12966e-07 -5.15162e-06 -2.57408e-20)
(3.74903e-07 -4.56669e-06 -5.11001e-20)
(7.40028e-07 -3.85574e-06 5.08458e-20)
(1.18608e-06 -3.12518e-06 5.04055e-20)
(1.69168e-06 -2.48107e-06 -5.01025e-20)
(2.21659e-06 -2.00749e-06 0)
(2.71606e-06 -1.76827e-06 4.92153e-20)
(3.14857e-06 -1.76349e-06 -5.22118e-23)
(3.44843e-06 -1.94019e-06 -4.84064e-20)
(3.53964e-06 -2.22235e-06 0)
(3.33094e-06 -2.46791e-06 -9.50607e-20)
(2.70796e-06 -2.46444e-06 9.41761e-20)
(1.75001e-06 -2.03368e-06 0)
(6.86776e-07 -1.21977e-06 0)
(-3.35395e-07 -9.91797e-08 9.21841e-20)
(-1.18544e-06 9.61371e-07 -9.11792e-20)
(-2.11736e-06 1.59366e-06 0)
(1.99278e-08 -4.40222e-07 0)
(6.97931e-08 -4.02011e-06 0)
(2.23001e-07 -4.23446e-06 0)
(1.59787e-07 -4.2815e-06 0)
(6.76489e-08 -4.71794e-06 0)
(1.28689e-08 -5.24839e-06 0)
(4.57365e-08 -5.6459e-06 0)
(1.96397e-07 -5.74942e-06 0)
(4.95047e-07 -5.53136e-06 0)
(9.40744e-07 -5.05206e-06 0)
(1.52759e-06 -4.43139e-06 0)
(2.24254e-06 -3.78105e-06 -4.98027e-20)
(3.03728e-06 -3.19677e-06 4.95194e-20)
(3.84258e-06 -2.75074e-06 0)
(4.63036e-06 -2.50969e-06 0)
(5.38302e-06 -2.50863e-06 0)
(5.98681e-06 -2.70019e-06 0)
(6.3256e-06 -2.98938e-06 0)
(6.31763e-06 -3.2345e-06 0)
(5.86641e-06 -3.21193e-06 0)
(4.91592e-06 -2.64236e-06 0)
(3.62848e-06 -1.45849e-06 0)
(2.21223e-06 1.51282e-07 -9.13277e-20)
(8.04825e-07 1.65322e-06 9.03813e-20)
(-8.46629e-07 2.49152e-06 0)
(5.55869e-07 6.18685e-08 0)
(6.5651e-08 -4.18687e-06 0)
(2.46046e-07 -4.22994e-06 0)
(2.35997e-07 -4.23325e-06 0)
(2.33401e-07 -4.73887e-06 0)
(3.03041e-07 -5.42667e-06 2.53884e-20)
(5.02678e-07 -6.02697e-06 -2.53247e-20)
(8.76758e-07 -6.32683e-06 0)
(1.46157e-06 -6.31251e-06 0)
(2.24711e-06 -6.01822e-06 -4.98279e-20)
(3.20832e-06 -5.5426e-06 9.91242e-20)
(4.32224e-06 -5.00917e-06 -8.96474e-23)
(5.538e-06 -4.49721e-06 -4.89192e-20)
(6.78082e-06 -4.04669e-06 0)
(7.98984e-06 -3.70465e-06 0)
(9.11877e-06 -3.53706e-06 4.76812e-20)
(1.00716e-05 -3.53969e-06 -4.73396e-20)
(1.07317e-05 -3.62926e-06 -9.37701e-20)
(1.09859e-05 -3.66375e-06 3.15675e-23)
(1.07234e-05 -3.42568e-06 9.22085e-20)
(9.90064e-06 -2.66719e-06 9.15414e-20)
(8.4985e-06 -1.16737e-06 -9.07038e-20)
(6.48602e-06 1.01616e-06 9.0382e-20)
(4.16611e-06 3.1852e-06 -8.94915e-20)
(1.40632e-06 4.16734e-06 0)
(1.47847e-06 1.05194e-06 0)
(6.29867e-08 -4.35137e-06 0)
(3.07209e-07 -4.29402e-06 0)
(4.21423e-07 -4.31985e-06 0)
(5.96912e-07 -4.96519e-06 0)
(8.88439e-07 -5.89483e-06 0)
(1.40053e-06 -6.80354e-06 0)
(2.15735e-06 -7.40248e-06 0)
(3.17976e-06 -7.66253e-06 0)
(4.4872e-06 -7.66048e-06 -4.91772e-20)
(5.99967e-06 -7.42685e-06 4.89692e-20)
(7.68944e-06 -7.03695e-06 0)
(9.53675e-06 -6.56467e-06 0)
(1.14352e-05 -6.04907e-06 0)
(1.32536e-05 -5.52144e-06 0)
(1.49232e-05 -5.02632e-06 0)
(1.63528e-05 -4.58628e-06 0)
(1.7421e-05 -4.16875e-06 0)
(1.80119e-05 -3.68764e-06 -9.18893e-20)
(1.79946e-05 -2.96042e-06 9.11569e-20)
(1.72336e-05 -1.71747e-06 0)
(1.56177e-05 2.50246e-07 0)
(1.31285e-05 2.89072e-06 0)
(9.67701e-06 5.62674e-06 0)
(5.13942e-06 6.88017e-06 0)
(2.97491e-06 2.88155e-06 0)
(6.39814e-08 -4.52741e-06 0)
(4.20297e-07 -4.47558e-06 0)
(7.51365e-07 -4.635e-06 0)
(1.21259e-06 -5.53937e-06 0)
(1.83562e-06 -6.8133e-06 0)
(2.79338e-06 -8.03544e-06 0)
(4.13444e-06 -9.00549e-06 0)
(5.77294e-06 -9.6114e-06 0)
(7.76578e-06 -9.91946e-06 0)
(1.01051e-05 -9.97359e-06 0)
(1.26937e-05 -9.80115e-06 4.79365e-20)
(1.5441e-05 -9.4464e-06 -4.77034e-20)
(1.82123e-05 -8.92571e-06 0)
(2.08806e-05 -8.18508e-06 0)
(2.33454e-05 -7.19178e-06 4.65182e-20)
(2.5469e-05 -6.00454e-06 -4.62175e-20)
(2.71079e-05 -4.70357e-06 -9.15179e-20)
(2.81332e-05 -3.26811e-06 9.08578e-20)
(2.84231e-05 -1.61606e-06 0)
(2.78021e-05 4.33969e-07 0)
(2.60212e-05 3.11842e-06 0)
(2.28103e-05 6.46174e-06 8.82943e-20)
(1.80007e-05 9.77089e-06 -1.75405e-19)
(1.1328e-05 1.1302e-05 8.70868e-20)
(5.51409e-06 6.16409e-06 0)
(7.90999e-08 -4.75059e-06 0)
(5.91232e-07 -4.87729e-06 0)
(1.20647e-06 -5.31235e-06 0)
(2.07783e-06 -6.61016e-06 0)
(3.29359e-06 -8.32438e-06 0)
(4.92326e-06 -1.00078e-05 0)
(6.96865e-06 -1.146e-05 -2.41647e-20)
(9.46077e-06 -1.25412e-05 2.40922e-20)
(1.24021e-05 -1.32344e-05 -4.78732e-20)
(1.57398e-05 -1.35881e-05 4.76901e-20)
(1.93729e-05 -1.36146e-05 -4.73158e-20)
(2.32165e-05 -1.33169e-05 4.70969e-20)
(2.72012e-05 -1.26952e-05 0)
(3.12039e-05 -1.17181e-05 -4.63155e-20)
(3.49585e-05 -1.02971e-05 4.60478e-20)
(3.81428e-05 -8.28408e-06 0)
(4.06176e-05 -5.70594e-06 0)
(4.2311e-05 -2.79989e-06 -8.96511e-20)
(4.30528e-05 4.19972e-07 6.98756e-23)
(4.26226e-05 3.90928e-06 8.82645e-20)
(4.07101e-05 7.79258e-06 0)
(3.69891e-05 1.22755e-05 -8.71522e-20)
(3.09869e-05 1.66978e-05 8.64102e-20)
(2.14836e-05 1.85041e-05 0)
(9.78326e-06 1.16156e-05 -7.36234e-20)
(8.3091e-08 -5.07449e-06 0)
(8.03729e-07 -5.6011e-06 0)
(1.81549e-06 -6.47352e-06 0)
(3.27646e-06 -8.28756e-06 0)
(5.1961e-06 -1.05915e-05 0)
(7.60267e-06 -1.29324e-05 0)
(1.05921e-05 -1.49847e-05 0)
(1.41885e-05 -1.66366e-05 0)
(1.83488e-05 -1.78551e-05 0)
(2.30112e-05 -1.86358e-05 0)
(2.80715e-05 -1.89449e-05 0)
(3.34206e-05 -1.87246e-05 0)
(3.8914e-05 -1.79077e-05 0)
(4.4391e-05 -1.64575e-05 0)
(4.9729e-05 -1.43824e-05 0)
(5.46606e-05 -1.15221e-05 0)
(5.86681e-05 -7.51058e-06 0)
(6.15333e-05 -2.54893e-06 0)
(6.31305e-05 3.11981e-06 0)
(6.3205e-05 9.27611e-06 0)
(6.18108e-05 1.58839e-05 0)
(5.84833e-05 2.22794e-05 0)
(5.11537e-05 2.7911e-05 0)
(3.72645e-05 2.98744e-05 0)
(1.6584e-05 2.0185e-05 0)
(9.20549e-08 -5.5298e-06 5.36375e-21)
(1.07921e-06 -6.71098e-06 5.93715e-21)
(2.60098e-06 -8.21649e-06 -1.18673e-20)
(4.74499e-06 -1.072e-05 2.36861e-20)
(7.4986e-06 -1.37972e-05 -2.36485e-20)
(1.09406e-05 -1.69029e-05 0)
(1.51144e-05 -1.96936e-05 2.34876e-20)
(2.00083e-05 -2.20461e-05 2.337e-20)
(2.56023e-05 -2.38981e-05 -9.32354e-20)
(3.18298e-05 -2.5202e-05 4.64255e-20)
(3.85912e-05 -2.58864e-05 4.61073e-20)
(4.57808e-05 -2.58554e-05 -4.59133e-20)
(5.32567e-05 -2.50005e-05 -4.5538e-20)
(6.0803e-05 -2.3171e-05 9.05363e-20)
(6.82351e-05 -2.02474e-05 -9.97304e-23)
(7.5445e-05 -1.62452e-05 4.44183e-20)
(8.18992e-05 -1.09192e-05 -8.85285e-20)
(8.70446e-05 -3.69848e-06 -8.75439e-20)
(9.06542e-05 5.01377e-06 1.7375e-19)
(9.28672e-05 1.46617e-05 -8.61824e-20)
(9.2998e-05 2.50733e-05 0)
(8.96395e-05 3.51839e-05 8.45594e-20)
(8.03874e-05 4.36057e-05 -1.67883e-19)
(6.09359e-05 4.7545e-05 8.33089e-20)
(2.7833e-05 3.42922e-05 7.21301e-20)
(1.06452e-07 -6.1389e-06 0)
(1.41339e-06 -8.27821e-06 0)
(3.52327e-06 -1.06402e-05 0)
(6.46816e-06 -1.40371e-05 0)
(1.02119e-05 -1.80225e-05 0)
(1.48172e-05 -2.20289e-05 0)
(2.03259e-05 -2.57214e-05 0)
(2.67351e-05 -2.89176e-05 0)
(3.4013e-05 -3.15189e-05 0)
(4.20924e-05 -3.34381e-05 0)
(5.08794e-05 -3.45654e-05 0)
(6.02647e-05 -3.4767e-05 0)
(7.01074e-05 -3.38931e-05 0)
(8.02425e-05 -3.17628e-05 0)
(9.04598e-05 -2.8137e-05 0)
(0.000100525 -2.28573e-05 0)
(0.00011042 -1.60119e-05 0)
(0.000119511 -7.01145e-06 0)
(0.000127051 4.68027e-06 -8.58117e-20)
(0.000133008 1.86657e-05 8.52458e-20)
(0.000136385 3.40766e-05 0)
(0.000135399 5.05679e-05 0)
(0.000126611 6.6653e-05 0)
(0.000100855 8.04089e-05 0)
(5.11545e-05 6.6389e-05 0)
(1.35793e-07 -6.95753e-06 0)
(1.8022e-06 -1.04089e-05 0)
(4.56955e-06 -1.3914e-05 0)
(8.40883e-06 -1.84521e-05 0)
(1.32649e-05 -2.3576e-05 0)
(1.91863e-05 -2.86957e-05 0)
(2.62033e-05 -3.34369e-05 0)
(3.43137e-05 -3.75969e-05 0)
(4.34826e-05 -4.10417e-05 0)
(5.36499e-05 -4.36463e-05 0)
(6.4736e-05 -4.52643e-05 -4.49249e-20)
(7.66505e-05 -4.57217e-05 4.47517e-20)
(8.92863e-05 -4.48129e-05 0)
(0.000102528 -4.2294e-05 0)
(0.000116231 -3.78957e-05 0)
(0.000130206 -3.13016e-05 0)
(0.000144419 -2.2313e-05 0)
(0.000158944 -1.11207e-05 0)
(0.0001733 2.86486e-06 0)
(0.000186555 2.02249e-05 0)
(0.000197856 4.02845e-05 0)
(0.000205338 6.41732e-05 -8.18019e-20)
(0.000204635 9.08054e-05 8.12245e-20)
(0.000180137 0.000116297 0)
(0.000102867 0.000118184 0)
(1.67853e-07 -7.95088e-06 0)
(2.15414e-06 -1.29565e-05 0)
(5.5203e-06 -1.77194e-05 0)
(1.02047e-05 -2.34308e-05 0)
(1.61192e-05 -2.97043e-05 0)
(2.32899e-05 -3.59583e-05 0)
(3.17389e-05 -4.17899e-05 0)
(4.1464e-05 -4.69697e-05 0)
(5.24426e-05 -5.13333e-05 0)
(6.46337e-05 -5.47296e-05 0)
(7.7987e-05 -5.69886e-05 0)
(9.24534e-05 -5.79126e-05 0)
(0.000107987 -5.7272e-05 0)
(0.000124555 -5.48042e-05 0)
(0.00014215 -5.02242e-05 0)
(0.000160794 -4.32184e-05 0)
(0.000180537 -3.34496e-05 0)
(0.000201561 -2.07843e-05 0)
(0.000224098 -5.27006e-06 0)
(0.000247209 1.35521e-05 0)
(0.000271391 3.69238e-05 0)
(0.000298154 6.68734e-05 0)
(0.000328899 0.000105723 0)
(0.00036569 0.000146305 0)
(0.000420506 0.000173093 0)
(1.89916e-07 -9.07657e-06 0)
(2.43963e-06 -1.58455e-05 0)
(6.29751e-06 -2.20063e-05 0)
(1.16686e-05 -2.89931e-05 0)
(1.84319e-05 -3.65398e-05 0)
(2.65958e-05 -4.40936e-05 0)
(3.61763e-05 -5.12448e-05 0)
(4.71718e-05 -5.77411e-05 0)
(5.95661e-05 -6.34047e-05 0)
(7.33336e-05 -6.80795e-05 0)
(8.84476e-05 -7.16003e-05 0)
(0.000104889 -7.37822e-05 0)
(0.000122653 -7.44155e-05 0)
(0.000141754 -7.32688e-05 0)
(0.000162241 -7.01014e-05 0)
(0.000184204 -6.46868e-05 0)
(0.000207774 -5.68308e-05 0)
(0.000233104 -4.63872e-05 0)
(0.000260389 -3.33629e-05 0)
(0.000289766 -1.77198e-05 0)
(0.000320901 2.12867e-06 0)
(0.000354107 2.7333e-05 0)
(0.000390673 6.04473e-05 0)
(0.000428321 9.99562e-05 0)
(0.000444869 0.000132784 0)
(2.04103e-07 -1.03533e-05 0)
(2.68369e-06 -1.91432e-05 0)
(6.98199e-06 -2.69378e-05 0)
(1.29811e-05 -3.54187e-05 0)
(2.05288e-05 -4.44334e-05 0)
(2.96144e-05 -5.34595e-05 0)
(4.02452e-05 -6.20844e-05 0)
(5.24167e-05 -7.00427e-05 0)
(6.61161e-05 -7.71477e-05 0)
(8.13272e-05 -8.32408e-05 0)
(9.80383e-05 -8.81628e-05 0)
(0.000116249 -9.17418e-05 0)
(0.000135975 -9.37863e-05 0)
(0.000157256 -9.40865e-05 0)
(0.000180157 -9.24252e-05 0)
(0.000204768 -8.85911e-05 0)
(0.000231193 -8.2393e-05 0)
(0.000259525 -7.36547e-05 0)
(0.000289756 -6.21741e-05 0)
(0.000321684 -4.76572e-05 0)
(0.000354581 -2.93432e-05 0)
(0.000387314 -5.03966e-06 0)
(0.0004184 2.86157e-05 0)
(0.000443585 7.55627e-05 0)
(0.000447831 0.000141063 0)
(2.15242e-07 -1.17419e-05 0)
(2.88964e-06 -2.27646e-05 0)
(7.5766e-06 -3.23828e-05 0)
(1.414e-05 -4.25248e-05 0)
(2.24002e-05 -5.31541e-05 0)
(3.23272e-05 -6.37853e-05 0)
(4.39166e-05 -7.40088e-05 0)
(5.71588e-05 -8.35537e-05 0)
(7.20394e-05 -9.22297e-05 0)
(8.85453e-05 -9.98807e-05 0)
(0.000106669 -0.000106357 0)
(0.000126416 -0.000111502 0)
(0.000147806 -0.000115143 0)
(0.000170878 -0.000117091 0)
(0.00019568 -0.000117143 0)
(0.000222266 -0.000115089 0)
(0.000250661 -0.0001107 0)
(0.000280823 -0.000103699 0)
(0.000312547 -9.3684e-05 0)
(0.000345315 -7.99504e-05 0)
(0.000378086 -6.11835e-05 0)
(0.000409154 -3.4689e-05 0)
(0.000436073 4.13548e-06 0)
(0.000455242 6.23267e-05 0)
(0.000460005 0.000150749 0)
(2.23079e-07 -1.32213e-05 0)
(3.05929e-06 -2.66611e-05 0)
(8.08258e-06 -3.8276e-05 0)
(1.51432e-05 -5.02328e-05 0)
(2.40372e-05 -6.2611e-05 0)
(3.47164e-05 -7.49676e-05 0)
(4.71635e-05 -8.69018e-05 0)
(6.13605e-05 -9.81422e-05 0)
(7.72881e-05 -0.000108499 0)
(9.49291e-05 -0.000117819 0)
(0.000114273 -0.000125964 0)
(0.000135318 -0.000132789 0)
(0.000158075 -0.000138132 0)
(0.00018256 -0.000141816 0)
(0.000208792 -0.000143637 0)
(0.000236766 -0.000143359 0)
(0.000266429 -0.000140688 0)
(0.000297623 -0.000135206 0)
(0.00033001 -0.00012626 0)
(0.000362958 -0.000112748 0)
(0.000395408 -9.27835e-05 0)
(0.00042581 -6.31709e-05 0)
(0.000452292 -1.88034e-05 0)
(0.00047291 4.78479e-05 0)
(0.000486277 0.000147242 0)
(2.27522e-07 -1.47735e-05 0)
(3.19403e-06 -3.07901e-05 0)
(8.50264e-06 -4.45573e-05 0)
(1.59931e-05 -5.84686e-05 0)
(2.54408e-05 -7.27173e-05 0)
(3.67805e-05 -8.69054e-05 0)
(4.99815e-05 -0.000100645 0)
(6.50157e-05 -0.000113668 0)
(8.18547e-05 -0.000125786 0)
(0.000100473 -0.00013685 0)
(0.000120849 -0.000146728 0)
(0.000142968 -0.000155283 0)
(0.000166822 -0.00016236 0)
(0.0001924 -0.000167778 0)
(0.00021968 -0.000171316 0)
(0.00024861 -0.000172698 0)
(0.000279073 -0.000171545 0)
(0.00031085 -0.000167299 0)
(0.000343567 -0.00015909 0)
(0.000376639 -0.000145524 0)
(0.000409234 -0.000124387 0)
(0.000440342 -9.22704e-05 0)
(0.00046907 -4.42298e-05 0)
(0.000495141 2.63339e-05 0)
(0.000519975 0.000127622 0)
(2.28744e-07 -1.63815e-05 0)
(3.29584e-06 -3.51106e-05 0)
(8.84083e-06 -5.11682e-05 0)
(1.66962e-05 -6.71597e-05 0)
(2.66198e-05 -8.33883e-05 0)
(3.85309e-05 -9.95025e-05 0)
(5.23857e-05 -0.00011513 0)
(6.81438e-05 -0.000130007 0)
(8.57656e-05 -0.000143945 0)
(0.000105213 -0.000156802 0)
(0.000126452 -0.000168447 0)
(0.000149452 -0.000178748 0)
(0.000174181 -0.000187549 0)
(0.000200603 -0.000194659 0)
(0.000228663 -0.000199834 0)
(0.000258275 -0.000202746 0)
(0.000289293 -0.000202941 0)
(0.00032149 -0.000199749 0)
(0.000354535 -0.000192157 0)
(0.000387996 -0.000178624 0)
(0.000421379 -0.000156855 0)
(0.000454283 -0.000123569 0)
(0.000486719 -7.44009e-05 0)
(0.000519626 -4.06538e-06 0)
(0.000555706 9.31912e-05 0)
(2.27091e-07 -1.8029e-05 0)
(3.36751e-06 -3.95838e-05 0)
(9.10379e-06 -5.80531e-05 0)
(1.72633e-05 -7.62366e-05 0)
(2.75905e-05 -9.45428e-05 0)
(3.99902e-05 -0.000112667 0)
(5.44055e-05 -0.000130253 0)
(7.07835e-05 -0.000147042 0)
(8.90719e-05 -0.000162847 0)
(0.00010922 -0.000177527 0)
(0.00013118 -0.000190956 0)
(0.000154903 -0.000203 0)
(0.000180342 -0.000213501 0)
(0.000207437 -0.000222253 0)
(0.000236117 -0.000228987 0)
(0.000266277 -0.000233336 0)
(0.000297776 -0.000234786 0)
(0.000330422 -0.000232601 0)
(0.000363983 -0.000225709 0)
(0.000398221 -0.00021256 0)
(0.000432985 -0.000190969 0)
(0.000468398 -0.000158014 0)
(0.000505145 -0.000110076 0)
(0.000544879 -4.31624e-05 0)
(0.000590739 4.65003e-05 0)
(2.22992e-07 -1.97016e-05 0)
(3.41276e-06 -4.41747e-05 0)
(9.29964e-06 -6.51609e-05 0)
(1.77088e-05 -8.56358e-05 0)
(2.83739e-05 -0.000106107 0)
(4.11874e-05 -0.000126314 0)
(5.60795e-05 -0.000145921 0)
(7.29849e-05 -0.000164669 0)
(9.18396e-05 -0.000182377 0)
(0.000112581 -0.000198904 0)
(0.000135147 -0.000214124 0)
(0.000159479 -0.000227905 0)
(0.000185513 -0.000240081 0)
(0.000213181 -0.000250437 0)
(0.000242402 -0.000258684 0)
(0.000273081 -0.000264428 0)
(0.0003051 -0.000267128 0)
(0.000338332 -0.000266027 0)
(0.000372664 -0.000260067 0)
(0.000408053 -0.000247794 0)
(0.000444641 -0.000227261 0)
(0.000482932 -0.000196009 0)
(0.000524032 -0.000151187 0)
(0.000569929 -8.99098e-05 0)
(0.000623752 -9.84795e-06 0)
(2.16943e-07 -2.13869e-05 0)
(3.43546e-06 -4.88526e-05 0)
(9.43763e-06 -7.24467e-05 0)
(1.80482e-05 -9.53009e-05 0)
(2.89932e-05 -0.000118014 0)
(4.21539e-05 -0.000140371 0)
(5.74489e-05 -0.000162049 0)
(7.48019e-05 -0.0001828 0)
(9.41379e-05 -0.00020244 0)
(0.000115384 -0.000220833 0)
(0.00013847 -0.000237853 0)
(0.000163327 -0.000253367 0)
(0.000189885 -0.000267208 0)
(0.000218074 -0.000279153 0)
(0.000247819 -0.000288906 0)
(0.000279044 -0.000296064 0)
(0.000311674 -0.000300086 0)
(0.000345658 -0.000300236 0)
(0.000381 -0.00029553 0)
(0.000417827 -0.000284671 0)
(0.000456499 -0.000266015 0)
(0.000497759 -0.000237587 0)
(0.000542922 -0.000197242 0)
(0.000594046 -0.000142985 0)
(0.000654032 -7.34826e-05 0)
(2.09428e-07 -2.30746e-05 0)
(3.4397e-06 -5.35911e-05 0)
(9.52661e-06 -7.98712e-05 0)
(1.82967e-05 -0.000105182 0)
(2.94706e-05 -0.000130206 0)
(4.292e-05 -0.00015477 0)
(5.85534e-05 -0.000178568 0)
(7.62848e-05 -0.000201358 0)
(9.60308e-05 -0.000222959 0)
(0.000117711 -0.000243237 0)
(0.000141249 -0.000262069 0)
(0.000166571 -0.000279325 0)
(0.000193609 -0.000294837 0)
(0.000222296 -0.000308385 0)
(0.000252572 -0.000319676 0)
(0.000284391 -0.000328317 0)
(0.000317728 -0.000333789 0)
(0.000352603 -0.000335415 0)
(0.000389125 -0.000332318 0)
(0.000427553 -0.000323394 0)
(0.000468389 -0.000307307 0)
(0.000512501 -0.000282545 0)
(0.000561254 -0.000247561 0)
(0.000616612 -0.000201054 0)
(0.000681153 -0.000142362 0)
(2.00912e-07 -2.47563e-05 0)
(3.42899e-06 -5.83681e-05 0)
(9.57496e-06 -8.74008e-05 0)
(1.8468e-05 -0.000115236 0)
(2.98259e-05 -0.000142632 0)
(4.35121e-05 -0.000169454 0)
(5.94267e-05 -0.000195415 0)
(7.74761e-05 -0.000220278 0)
(9.75704e-05 -0.000243868 0)
(0.000119625 -0.000266053 0)
(0.000143559 -0.000286718 0)
(0.000169301 -0.000305734 0)
(0.000196784 -0.000322943 0)
(0.000225955 -0.000338133 0)
(0.000256773 -0.000351025 0)
(0.000289223 -0.000361251 0)
(0.000323329 -0.000368339 0)
(0.000359176 -0.000371686 0)
(0.000396954 -0.000370544 0)
(0.000437013 -0.000364009 0)
(0.000479934 -0.000351039 0)
(0.000526626 -0.00033052 0)
(0.000578404 -0.000301396 0)
(0.000637047 -0.000262887 0)
(0.000704777 -0.000214783 0)
(1.91777e-07 -2.64256e-05 0)
(3.40656e-06 -6.31652e-05 0)
(9.58935e-06 -9.50063e-05 0)
(1.85735e-05 -0.000125425 0)
(3.0075e-05 -0.000155245 0)
(4.39512e-05 -0.000184372 0)
(6.00953e-05 -0.000212534 0)
(7.84078e-05 -0.000239503 0)
(9.87947e-05 -0.00026511 0)
(0.000121168 -0.000289229 0)
(0.000145449 -0.000311751 0)
(0.000171566 -0.000332558 0)
(0.000199462 -0.000351503 0)
(0.000229096 -0.000368391 0)
(0.000260449 -0.000382967 0)
(0.000293537 -0.000394901 0)
(0.000328424 -0.000403777 0)
(0.000365248 -0.000409084 0)
(0.000404258 -0.000410204 0)
(0.000445855 -0.000406427 0)
(0.000490653 -0.000396971 0)
(0.000539541 -0.000381054 0)
(0.000593732 -0.000358001 0)
(0.000654786 -0.000327413 0)
(0.000724567 -0.000289379 0)
(1.82359e-07 -2.80775e-05 0)
(3.37471e-06 -6.79668e-05 0)
(9.57526e-06 -0.000102662 0)
(1.86215e-05 -0.000135714 0)
(3.02298e-05 -0.000168005 0)
(4.42526e-05 -0.000199476 0)
(6.05775e-05 -0.000229875 0)
(7.91014e-05 -0.000258981 0)
(9.97272e-05 -0.000286632 0)
(0.000122367 -0.000312712 0)
(0.000146942 -0.000337122 0)
(0.000173386 -0.000359756 0)
(0.000201652 -0.000380484 0)
(0.000231711 -0.000399136 0)
(0.000263566 -0.000415486 0)
(0.000297256 -0.000429251 0)
(0.000332881 -0.00044008 0)
(0.000370614 -0.000447554 0)
(0.000410739 -0.000451187 0)
(0.000453679 -0.000450441 0)
(0.000500044 -0.000444758 0)
(0.000550668 -0.000433621 0)
(0.000606637 -0.000416645 0)
(0.000669287 -0.000393701 0)
(0.00074016 -0.000365066 0)
(1.72879e-07 -2.97079e-05 0)
(3.33534e-06 -7.27595e-05 0)
(9.53623e-06 -0.000110346 0)
(1.86182e-05 -0.000146072 0)
(3.02985e-05 -0.000180873 0)
(4.44261e-05 -0.000214722 0)
(6.08849e-05 -0.000247387 0)
(7.95686e-05 -0.000278657 0)
(0.000100379 -0.00030838 0)
(0.000123229 -0.000336449 0)
(0.000148041 -0.000362777 0)
(0.000174757 -0.000387277 0)
(0.000203335 -0.000409839 0)
(0.00023376 -0.000430319 0)
(0.000266051 -0.000448529 0)
(0.000300268 -0.000464237 0)
(0.000336532 -0.000477159 0)
(0.000375038 -0.000486967 0)
(0.000416085 -0.000493295 0)
(0.000460095 -0.000495757 0)
(0.000507648 -0.00049398 0)
(0.000559503 -0.000487657 0)
(0.000616609 -0.000476615 0)
(0.000680094 -0.000460914 0)
(0.000751219 -0.000440942 0)
(1.63524e-07 -3.13139e-05 0)
(3.28955e-06 -7.75313e-05 0)
(9.47497e-06 -0.000118036 0)
(1.85671e-05 -0.000156469 0)
(3.02858e-05 -0.00019381 0)
(4.44773e-05 -0.000230065 0)
(6.10227e-05 -0.000265021 0)
(7.98139e-05 -0.000298479 0)
(0.000100752 -0.000330297 0)
(0.000123751 -0.00036038 0)
(0.000148738 -0.000388657 0)
(0.000175656 -0.000415058 0)
(0.000204473 -0.000439498 0)
(0.000235183 -0.000461864 0)
(0.000267815 -0.000482008 0)
(0.000302444 -0.000499749 0)
(0.000339203 -0.000514869 0)
(0.000378295 -0.000527127 0)
(0.000420016 -0.000536262 0)
(0.00046477 -0.00054202 0)
(0.000513092 -0.000544176 0)
(0.000565654 -0.000542584 0)
(0.000623271 -0.000537227 0)
(0.000686883 -0.000528289 0)
(0.00075751 -0.00051622 0)
(1.54413e-07 -3.28928e-05 0)
(3.2383e-06 -8.22713e-05 0)
(9.39278e-06 -0.000125712 0)
(1.84704e-05 -0.000166875 0)
(3.0194e-05 -0.00020678 0)
(4.44081e-05 -0.000245462 0)
(6.0992e-05 -0.000282727 0)
(7.98363e-05 -0.000318391 0)
(0.000100842 -0.000352322 0)
(0.000123925 -0.000384439 0)
(0.000149012 -0.000414688 0)
(0.000176054 -0.00044302 0)
(0.000205021 -0.000469375 0)
(0.000235913 -0.000493672 0)
(0.000268768 -0.000515803 0)
(0.000303665 -0.000535638 0)
(0.000340739 -0.000553024 0)
(0.000380192 -0.000567794 0)
(0.000422304 -0.000579783 0)
(0.00046745 -0.000588843 0)
(0.000516106 -0.000594868 0)
(0.000568856 -0.000597833 0)
(0.000626389 -0.000597833 0)
(0.000689477 -0.000595131 0)
(0.000758935 -0.000590206 0)
(1.45657e-07 -3.44424e-05 0)
(3.1819e-06 -8.69688e-05 0)
(9.29058e-06 -0.000133354 0)
(1.83289e-05 -0.000177263 0)
(3.00238e-05 -0.000219745 0)
(4.42187e-05 -0.000260867 0)
(6.07914e-05 -0.000300453 0)
(7.96321e-05 -0.000338333 0)
(0.000100642 -0.00037439 0)
(0.000123736 -0.000408555 0)
(0.000148845 -0.000440792 0)