/*--------------------------------*- C++ -*----------------------------------*\
  =========                 |
  \\      /  F ield         | OpenFOAM: The Open Source CFD Toolbox
   \\    /   O peration     | Website:  https://openfoam.org
    \\  /    A nd           | Version:  13
     \\/     M anipulation  |
\*---------------------------------------------------------------------------*/
FoamFile
{
    format      ascii;
    class       volVectorField;
    location    "6";
    object      U;
}
// * * * * * * * * * * * * * * * * * * * * * * * * * * * * * * * * * * * * * //

dimensions      [0 1 -1 0 0 0 0];

internalField   nonuniform List<vector> 
6440
(
(-0.00470446 -0.0020846 0)
(-0.015169 -0.00410441 0)
(-0.025542 -0.00381215 -1.4335e-15)
(-0.0364169 -0.00301823 1.32314e-15)
(-0.0472765 -0.00201902 0)
(-0.0581087 -0.00118984 -2.25256e-15)
(-0.0689184 -0.000382132 2.08068e-15)
(-0.0796958 0.000343851 0)
(-0.0903018 0.00119084 0)
(-0.100546 0.00213151 0)
(-0.110187 0.00331543 3.29174e-15)
(-0.11864 0.00419468 -6.33395e-15)
(-0.125329 0.00422044 3.0509e-15)
(-0.129784 0.00354892 0)
(-0.132008 0.0023571 -5.83576e-15)
(-0.131967 0.000649817 5.80355e-15)
(-0.130026 -0.00146733 0)
(-0.126422 -0.00412339 0)
(-0.121287 -0.0076647 0)
(-0.114308 -0.0126509 0)
(-0.104514 -0.0197771 -6.66575e-15)
(-0.0911909 -0.0288237 1.41567e-14)
(-0.0727146 -0.0369059 -8.01651e-15)
(-0.0484143 -0.0361156 -9.26235e-15)
(-0.0171541 -0.0168164 9.65331e-15)
(-0.0103947 0.000644251 0)
(-0.0322097 5.01979e-07 0)
(-0.0536785 0.00240909 -1.3306e-15)
(-0.0744809 0.0047778 1.14926e-15)
(-0.0943309 0.00671727 0)
(-0.113231 0.00783205 -1.79655e-15)
(-0.131121 0.00817244 3.2549e-15)
(-0.147681 0.00743151 -1.49945e-15)
(-0.162454 0.0056897 0)
(-0.17491 0.0027558 0)
(-0.184654 -0.00118837 0)
(-0.191339 -0.00619045 -2.52842e-15)
(-0.19484 -0.0120285 2.46548e-15)
(-0.195369 -0.0184043 2.43243e-15)
(-0.193192 -0.0249218 -2.43029e-15)
(-0.188577 -0.0315245 0)
(-0.182126 -0.0383485 0)
(-0.174481 -0.0459295 0)
(-0.166118 -0.0551955 0)
(-0.157022 -0.067076 0)
(-0.146377 -0.0819259 -6.02323e-15)
(-0.13286 -0.0978645 6.49585e-15)
(-0.114326 -0.107976 0)
(-0.0837601 -0.0952986 -8.1071e-15)
(-0.0302103 -0.037093 1.86982e-14)
(-0.0135823 0.00978966 0)
(-0.0411975 0.0135338 0)
(-0.0674216 0.0178779 0)
(-0.0923561 0.0217228 0)
(-0.115955 0.0242582 0)
(-0.138149 0.0250363 0)
(-0.158537 0.0237038 1.36282e-15)
(-0.176556 0.0201152 -1.2707e-15)
(-0.191738 0.0143694 0)
(-0.203846 0.00677882 0)
(-0.212763 -0.00211746 0)
(-0.218367 -0.0119722 0)
(-0.220838 -0.0225224 0)
(-0.220331 -0.033288 2.20961e-15)
(-0.216938 -0.044073 -6.62054e-15)
(-0.210775 -0.054838 4.46553e-15)
(-0.202415 -0.0657206 0)
(-0.192835 -0.0772663 0)
(-0.183347 -0.090597 0)
(-0.174775 -0.106995 0)
(-0.166677 -0.126677 0)
(-0.157157 -0.146919 0)
(-0.141638 -0.158065 6.10352e-15)
(-0.110484 -0.138622 -6.71371e-15)
(-0.0432911 -0.0530305 8.40867e-15)
(-0.0144695 0.0240734 0)
(-0.0466888 0.0331873 0)
(-0.0762978 0.0401657 -9.82336e-16)
(-0.104232 0.0452126 8.19979e-16)
(-0.130436 0.0474503 0)
(-0.154687 0.0463807 -1.27853e-15)
(-0.17649 0.0417943 1.18358e-15)
(-0.195584 0.0338722 0)
(-0.211826 0.0232058 2.17664e-15)
(-0.225162 0.0106262 -2.15328e-15)
(-0.235649 -0.00298893 2.16253e-15)
(-0.243168 -0.0173447 -4.26469e-15)
(-0.247664 -0.032395 2.05446e-15)
(-0.249149 -0.0478662 0)
(-0.247425 -0.0637567 0)
(-0.242283 -0.0798454 0)
(-0.233905 -0.0957409 4.03601e-15)
(-0.223241 -0.11149 5.89812e-20)
(-0.212049 -0.128045 -4.37099e-15)
(-0.202308 -0.14706 0)
(-0.194271 -0.169333 0)
(-0.185394 -0.191721 5.07068e-15)
(-0.170418 -0.203673 -5.15079e-15)
(-0.135861 -0.178011 -5.86809e-15)
(-0.0558798 -0.0706039 1.52266e-14)
(-0.0149913 0.0434708 0)
(-0.0510965 0.0597302 0)
(-0.0838186 0.0687552 -8.19197e-16)
(-0.114278 0.0736385 6.90722e-16)
(-0.142428 0.07397 0)
(-0.16818 0.0695655 -1.1163e-15)
(-0.191462 0.0607194 1.04985e-15)
(-0.212297 0.0481859 0)
(-0.230812 0.032949 1.99021e-15)
(-0.247138 0.0160557 -1.98416e-15)
(-0.261035 -0.00153927 2.00321e-15)
(-0.27202 -0.0198348 -3.95247e-15)
(-0.279974 -0.0393117 1.87767e-15)
(-0.284948 -0.0597989 0)
(-0.286588 -0.0814055 3.51805e-15)
(-0.28435 -0.103705 -3.47183e-15)
(-0.277876 -0.125802 3.48376e-15)
(-0.267509 -0.147048 5.65186e-20)
(-0.254811 -0.16763 -3.7121e-15)
(-0.242147 -0.189086 0)
(-0.231046 -0.212809 4.14581e-15)
(-0.21976 -0.236622 -7.41464e-20)
(-0.201698 -0.248113 -4.58042e-15)
(-0.162244 -0.217528 -5.03193e-15)
(-0.0682486 -0.0891994 6.88191e-15)
(-0.0153151 0.0683383 0)
(-0.0546256 0.0923163 0)
(-0.0899427 0.10207 -6.90917e-16)
(-0.122297 0.105074 5.94734e-16)
(-0.15204 0.102138 0)
(-0.179375 0.0937859 -9.94621e-16)
(-0.204592 0.0808706 9.49693e-16)
(-0.22812 0.0643962 0)
(-0.25012 0.0454488 1.82236e-15)
(-0.270383 0.024997 -1.82298e-15)
(-0.288413 0.00377619 1.84115e-15)
(-0.303473 -0.0181806 -3.67927e-15)
(-0.315349 -0.0420434 1.72499e-15)
(-0.324378 -0.0675917 0)
(-0.330208 -0.0950917 -3.13956e-15)
(-0.332082 -0.12413 3.04959e-15)
(-0.329182 -0.153572 3.00847e-15)
(-0.321239 -0.182159 5.89808e-20)
(-0.308816 -0.209051 -3.10395e-15)
(-0.293831 -0.234721 0)
(-0.278209 -0.260655 -3.4436e-15)
(-0.261535 -0.285116 7.36102e-15)
(-0.238281 -0.295914 -3.81382e-15)
(-0.191398 -0.259241 -4.40593e-15)
(-0.0826614 -0.112809 6.14235e-15)
(-0.0157416 0.0973266 0)
(-0.0569772 0.129396 0)
(-0.0941948 0.138225 -5.94606e-16)
(-0.128065 0.13814 5.22487e-16)
(-0.159377 0.131587 0)
(-0.188676 0.119658 -9.00378e-16)
(-0.216595 0.103442 8.64287e-16)
(-0.243448 0.0839872 0)
(-0.26925 0.0621201 1.6692e-15)
(-0.293754 0.0384899 -1.6656e-15)
(-0.316188 0.01374 1.67869e-15)
(-0.335365 -0.0118321 -3.40397e-15)
(-0.351188 -0.0398978 1.60125e-15)
(-0.364197 -0.0704551 0)
(-0.374252 -0.103814 0)
(-0.38057 -0.139753 0)
(-0.382152 -0.177159 2.63464e-15)
(-0.378245 -0.21452 6.27426e-20)
(-0.36855 -0.25014 -2.6188e-15)
(-0.353549 -0.283106 0)
(-0.334655 -0.313499 0)
(-0.312115 -0.339663 3.011e-15)
(-0.281583 -0.349207 -3.30131e-15)
(-0.225846 -0.308002 -3.72099e-15)
(-0.0994178 -0.144257 5.3978e-15)
(-0.0164482 0.129869 0)
(-0.0584067 0.16911 0)
(-0.0970003 0.176051 -5.19783e-16)
(-0.132285 0.172586 4.65542e-16)
(-0.165492 0.162736 0)
(-0.197209 0.147947 -8.16824e-16)
(-0.228021 0.129293 7.88552e-16)
(-0.258308 0.107466 0)
(-0.287978 0.0830148 1.52014e-15)
(-0.316492 0.0564086 -1.51706e-15)
(-0.343075 0.0281037 1.52737e-15)
(-0.366405 -0.00141578 -3.10302e-15)
(-0.38602 -0.0334016 1.50376e-15)
(-0.402485 -0.0689965 0)
(-0.416259 -0.108142 0)
(-0.426635 -0.150911 0)
(-0.432604 -0.196396 2.35405e-15)
(-0.433314 -0.243099 6.53368e-20)
(-0.427843 -0.288997 -2.25884e-15)
(-0.415576 -0.331914 0)
(-0.396157 -0.370126 0)
(-0.369466 -0.400371 2.53886e-15)
(-0.33213 -0.410549 -2.7067e-15)
(-0.266489 -0.36547 -3.19662e-15)
(-0.120406 -0.190571 9.25988e-15)
(-0.0171133 0.164624 0)
(-0.0593857 0.210634 0)
(-0.0993007 0.215213 0)
(-0.136227 0.208603 0)
(-0.171539 0.196075 7.78606e-16)
(-0.205788 0.179059 -7.41973e-16)
(-0.23962 0.158379 7.16464e-16)
(-0.273199 0.13454 -7.00579e-16)
(-0.30638 0.107754 1.38428e-15)
(-0.33876 0.078194 -2.07596e-20)
(-0.369358 0.0463021 -1.9794e-20)
(-0.396663 0.0126223 -1.4089e-15)
(-0.41977 -0.0233191 -1.42061e-15)
(-0.439298 -0.0641801 2.61016e-15)
(-0.456264 -0.109347 -3.62706e-15)
(-0.470033 -0.15905 2.26379e-15)
(-0.479686 -0.212608 0)
(-0.484364 -0.268708 2.05353e-15)
(-0.483154 -0.325371 -2.00021e-15)
(-0.474654 -0.379847 1.98747e-15)
(-0.457409 -0.428569 4.64723e-21)
(-0.429737 -0.466405 -1.51769e-20)
(-0.38811 -0.479751 -2.31767e-15)
(-0.313817 -0.434239 0)
(-0.145166 -0.253555 -3.89613e-15)
(-0.0177194 0.201122 0)
(-0.0605627 0.253624 0)
(-0.101972 0.255855 0)
(-0.140796 0.246549 0)
(-0.178435 0.231773 -7.02246e-16)
(-0.215308 0.212876 6.7118e-16)
(-0.251985 0.19052 -6.50435e-16)
(-0.288821 0.16485 6.35802e-16)
(-0.325623 0.135867 0)
(-0.361651 0.103564 -1.24816e-15)
(-0.395997 0.0680834 2.62533e-20)
(-0.427329 0.0299395 1.27629e-15)
(-0.454052 -0.0107092 0)
(-0.476906 -0.0570758 -1.23139e-15)
(-0.496869 -0.108987 3.39075e-15)
(-0.513481 -0.166129 -2.0997e-15)
(-0.525813 -0.227954 1.97216e-15)
(-0.533147 -0.293307 -1.87389e-15)
(-0.534692 -0.360499 0)
(-0.529197 -0.426671 -1.76864e-15)
(-0.514573 -0.487481 3.54048e-15)
(-0.488496 -0.53558 -3.66594e-15)
(-0.446444 -0.555568 1.94274e-15)
(-0.367143 -0.512778 0)
(-0.175203 -0.336972 -3.22731e-15)
(-0.0183916 0.239489 0)
(-0.0623332 0.298376 0)
(-0.105631 0.298283 0)
(-0.146658 0.286627 0)
(-0.18676 0.269944 6.32541e-16)
(-0.226378 0.249407 -6.0646e-16)
(-0.266286 0.225526 5.87057e-16)
(-0.306627 0.198364 -5.73793e-16)
(-0.347044 0.167522 1.13141e-15)
(-0.386937 0.132503 -3.23434e-20)
(-0.425302 0.0932957 -1.13011e-15)
(-0.46083 0.0503139 0)
(-0.492038 0.00382947 -1.18709e-15)
(-0.518914 -0.0484932 2.31886e-15)
(-0.541953 -0.108215 -3.16528e-15)
(-0.560992 -0.173632 1.947e-15)
(-0.575056 -0.244201 0)
(-0.583435 -0.318857 1.71854e-15)
(-0.585632 -0.396127 -1.64471e-15)
(-0.580664 -0.473453 1.5966e-15)
(-0.567222 -0.546193 6.23728e-20)
(-0.543196 -0.606055 -1.59971e-15)
(-0.504012 -0.635555 0)
(-0.424703 -0.600168 0)
(-0.207787 -0.437041 0)
(-0.0194265 0.280285 0)
(-0.0649582 0.345105 0)
(-0.110495 0.34281 3.2198e-16)
(-0.154073 0.329129 -2.99899e-16)
(-0.197066 0.310736 0)
(-0.239971 0.288823 5.45175e-16)
(-0.283537 0.263899 -1.05658e-15)
(-0.327982 0.235605 5.15078e-16)
(-0.372794 0.203047 0)
(-0.417083 0.165293 0)
(-0.460082 0.121947 0)
(-0.500701 0.0734679 1.02934e-15)
(-0.537177 0.0204136 -1.06381e-15)
(-0.568385 -0.0386808 -1.08293e-15)
(-0.594456 -0.107348 -9.77836e-16)
(-0.615529 -0.18208 1.79405e-15)
(-0.63047 -0.262218 1.66909e-15)
(-0.638596 -0.34666 -1.57285e-15)
(-0.639464 -0.43405 0)
(-0.632576 -0.52201 0)
(-0.617368 -0.6062 1.42671e-15)
(-0.59369 -0.677732 -1.43924e-15)
(-0.558579 -0.718269 0)
(-0.484758 -0.693248 1.68935e-15)
(-0.242249 -0.550383 -4.45606e-15)
(-0.0206554 0.323682 0)
(-0.0683342 0.394152 0)
(-0.116614 0.389718 -2.87206e-16)
(-0.163236 0.374308 2.68467e-16)
(-0.209676 0.354599 5.09765e-16)
(-0.256571 0.331819 -9.77886e-16)
(-0.304803 0.306316 9.4392e-16)
(-0.354245 0.277281 -4.58986e-16)
(-0.40421 0.243003 0)
(-0.454013 0.201978 8.91873e-16)
(-0.502688 0.153925 -8.95841e-16)
(-0.548887 0.0994885 -9.13347e-16)
(-0.590779 0.0392857 5.07528e-20)
(-0.626112 -0.027562 1.98048e-15)
(-0.654999 -0.106102 -2.69505e-15)
(-0.677615 -0.191402 1.64055e-15)
(-0.692698 -0.28233 0)
(-0.699552 -0.37765 0)
(-0.697784 -0.475882 0)
(-0.687042 -0.574725 1.32147e-15)
(-0.667775 -0.669902 -1.29699e-15)
(-0.641775 -0.752726 0)
(-0.609512 -0.804368 0)
(-0.545171 -0.791436 -1.48569e-15)
(-0.275423 -0.670376 -2.37407e-19)
(-0.0221477 0.369922 0)
(-0.0723389 0.445611 0)
(-0.123752 0.439292 2.56664e-16)
(-0.173973 0.422628 -2.40512e-16)
(-0.224632 0.402163 -4.56296e-16)
(-0.276452 0.379187 8.73132e-16)
(-0.330205 0.353701 -8.40892e-16)
(-0.385778 0.323897 4.0722e-16)
(-0.442297 0.287371 0)
(-0.498489 0.242618 -7.87456e-16)
(-0.553117 0.189587 7.90568e-16)
(-0.604803 0.128973 8.06198e-16)
(-0.65161 0.0611774 -8.3664e-16)
(-0.690794 -0.0148458 -8.85862e-16)
(-0.7223 -0.104228 -8.19969e-16)
(-0.745879 -0.201746 1.49236e-15)
(-0.760389 -0.305175 1.38221e-15)
(-0.765191 -0.413013 -1.3007e-15)
(-0.759807 -0.523297 0)
(-0.7441 -0.633648 -1.20229e-15)
(-0.718965 -0.73988 2.35975e-15)
(-0.688439 -0.833296 -1.18151e-15)
(-0.656738 -0.895213 0)
(-0.60314 -0.894565 1.33171e-15)
(-0.307251 -0.794251 -1.6223e-15)
(-0.023594 0.418732 1.57361e-16)
(-0.0766134 0.499731 1.25499e-16)
(-0.13154 0.491832 -2.29948e-16)
(-0.185848 0.474675 4.30979e-16)
(-0.241319 0.45426 -3.10836e-20)
(-0.298845 0.431954 -3.8951e-16)
(-0.359315 0.406487 3.73299e-16)
(-0.422205 0.375748 3.60211e-16)
(-0.485988 0.336516 -7.03014e-16)
(-0.548851 0.288052 6.94285e-16)
(-0.609209 0.230036 -6.97328e-16)
(-0.66585 0.163274 0)
(-0.717194 0.0871116 -7.4188e-16)
(-0.760312 0.000262893 1.58024e-15)
(-0.79424 -0.101965 -7.47538e-16)
(-0.818268 -0.213929 1.35555e-15)
(-0.831618 -0.332193 -1.25415e-15)
(-0.833525 -0.45437 0)
(-0.823574 -0.578193 0)
(-0.801697 -0.70025 1.09517e-15)
(-0.769441 -0.817143 2.93584e-19)
(-0.732519 -0.920118 -1.07735e-15)
(-0.69997 -0.991315 0)
(-0.655673 -1.00052 0)
(-0.335581 -0.918802 -1.41875e-15)
(-0.024814 0.470349 0)
(-0.0807246 0.556503 0)
(-0.139183 0.547816 0)
(-0.197773 0.530803 0)
(-0.258429 0.511722 0)
(-0.322593 0.489995 0)
(-0.390498 0.465424 0)
(-0.461254 0.433107 0)
(-0.532314 0.392174 6.224e-16)
(-0.601348 0.33997 -6.14722e-16)
(-0.666976 0.277806 0)
(-0.728527 0.203889 0)
(-0.784833 0.118097 0)
(-0.832383 0.0175888 0)
(-0.868788 -0.100231 0)
(-0.892914 -0.229716 0)
(-0.904282 -0.365101 -1.14081e-15)
(-0.902289 -0.503618 2.15031e-15)
(-0.886309 -0.641543 -2.05712e-15)
(-0.856802 -0.775055 1.00202e-15)
(-0.815779 -0.900316 9.87321e-16)
(-0.770836 -1.01087 -9.91934e-16)
(-0.735616 -1.08888 -1.02029e-15)
(-0.698039 -1.10564 1.09848e-15)
(-0.357841 -1.0374 -1.25586e-15)
(-0.0259775 0.523971 0)
(-0.0841111 0.616082 0)
(-0.145797 0.607008 1.86627e-16)
(-0.208165 0.591636 -1.74923e-16)
(-0.274665 0.573864 0)
(-0.345275 0.55468 3.12319e-16)
(-0.420919 0.530235 -5.92964e-16)
(-0.498981 0.498435 2.85682e-16)
(-0.576611 0.455433 5.53932e-16)
(-0.651447 0.401217 -5.48691e-16)
(-0.722631 0.333351 -5.50699e-16)
(-0.790441 0.25152 1.1333e-15)
(-0.852983 0.152944 -5.95047e-16)
(-0.905752 0.0362787 -6.45162e-16)
(-0.944562 -0.101361 -6.28046e-16)
(-0.967966 -0.250989 1.13042e-15)
(-0.975867 -0.405604 0)
(-0.967905 -0.561495 9.8146e-16)
(-0.943715 -0.712784 -9.45982e-16)
(-0.904333 -0.856064 0)
(-0.852893 -0.985336 9.15622e-16)
(-0.797959 -1.09825 -1.83054e-15)
(-0.757375 -1.17905 9.47437e-16)
(-0.723936 -1.19891 1.00605e-15)
(-0.372243 -1.13862 -2.27533e-15)
(-0.0260676 0.579231 1.13615e-16)
(-0.086081 0.677475 9.19234e-17)
(-0.14986 0.668937 -1.7018e-16)
(-0.216247 0.655366 3.17866e-16)
(-0.287186 0.64022 -5.98623e-16)
(-0.364464 0.623164 2.81555e-16)
(-0.44679 0.600479 0)
(-0.531548 0.569265 5.1223e-16)
(-0.615373 0.525976 -4.99297e-16)
(-0.696628 0.468784 -4.91409e-16)
(-0.775464 0.39493 4.96157e-16)
(-0.851205 0.302652 0)
(-0.921599 0.188833 5.40712e-16)
(-0.979907 0.0520295 -5.89876e-16)
(-1.02038 -0.108251 1.15755e-15)
(-1.0406 -0.280287 1.0401e-19)
(-1.04233 -0.455411 -1.91233e-15)
(-1.02467 -0.627377 9.06873e-16)
(-0.988761 -0.791428 -8.67791e-16)
(-0.936646 -0.939272 -7.39089e-19)
(-0.872354 -1.06815 1.69288e-15)
(-0.80626 -1.1727 -8.62857e-16)
(-0.75553 -1.2469 0)
(-0.724677 -1.26366 0)
(-0.385079 -1.20596 0)
(-0.0256433 0.634063 0)
(-0.0858461 0.739199 0)
(-0.15103 0.732078 0)
(-0.219556 0.721154 0)
(-0.294733 0.710111 0)
(-0.377121 0.696616 0)
(-0.465233 0.677967 -2.43184e-16)
(-0.555935 0.648626 2.33034e-16)
(-0.646616 0.605484 4.50983e-16)
(-0.736297 0.543618 -4.45819e-16)
(-0.824818 0.460697 -4.49435e-16)
(-0.911674 0.353125 4.64563e-16)
(-0.991106 0.220559 0)
(-1.05347 0.060718 -5.47499e-16)
(-1.09242 -0.125029 5.32679e-16)
(-1.1064 -0.321031 0)
(-1.0971 -0.516436 0)
(-1.06541 -0.704843 8.3276e-16)
(-1.01278 -0.878005 -1.62105e-15)
(-0.943156 -1.02832 7.95563e-16)
(-0.863698 -1.14862 8.06662e-16)
(-0.782909 -1.23626 -1.628e-15)
(-0.720532 -1.28809 8.50287e-16)
(-0.686273 -1.29218 0)
(-0.394246 -1.22035 -9.71859e-16)
(-0.0239045 0.686364 0)
(-0.0835433 0.799941 0)
(-0.149277 0.79445 1.43829e-16)
(-0.219523 0.78724 -1.34432e-16)
(-0.297591 0.780124 0)
(-0.383958 0.770682 2.35605e-16)
(-0.477063 0.754183 -4.45213e-16)
(-0.574113 0.725321 2.12321e-16)
(-0.673129 0.678827 4.10847e-16)
(-0.773547 0.610191 -4.05904e-16)
(-0.875008 0.516021 0)
(-0.972827 0.394879 4.26145e-16)
(-1.05899 0.243432 -4.58864e-16)
(-1.1226 0.0608502 -5.17395e-16)
(-1.15663 -0.15325 -4.88898e-16)
(-1.16024 -0.375419 8.75142e-16)
(-1.1359 -0.594494 0)
(-1.08472 -0.801011 7.74196e-16)
(-1.01011 -0.984572 -7.55514e-16)
(-0.91793 -1.13651 0)
(-0.81701 -1.24712 0)
(-0.7205 -1.31395 0)
(-0.642442 -1.33433 0)
(-0.578956 -1.30804 8.6788e-16)
(-0.399688 -1.20689 -1.83485e-15)
(-0.0203776 0.733257 0)
(-0.076895 0.858954 0)
(-0.1401 0.857374 0)
(-0.20786 0.856378 0)
(-0.284756 0.856699 0)
(-0.371478 0.855383 0)
(-0.46695 0.846776 0)
(-0.569471 0.825021 0)
(-0.677855 0.783053 0)
(-0.791299 0.713892 0)
(-0.906747 0.611932 0)
(-1.01933 0.471762 0)
(-1.11655 0.29131 0)
(-1.18263 0.0730192 0)
(-1.21256 -0.178215 0)
(-1.20466 -0.436289 0)
(-1.16256 -0.687532 0)
(-1.08867 -0.919765 0)
(-0.987785 -1.12138 0)
(-0.867829 -1.2808 0)
(-0.740334 -1.38992 0)
(-0.619859 -1.44311 0)
(-0.520208 -1.43931 0)
(-0.458323 -1.36717 0)
(-0.423779 -1.15867 0)
(-0.0150888 0.771788 0)
(-0.0662613 0.91253 0)
(-0.124154 0.915916 0)
(-0.187266 0.922076 0)
(-0.26039 0.931346 0)
(-0.345178 0.939875 0)
(-0.441819 0.942016 0)
(-0.549141 0.930929 0)
(-0.666377 0.897282 0)
(-0.792153 0.832363 0)
(-0.923914 0.728717 0)
(-1.05188 0.581502 0)
(-1.16028 0.387051 0)
(-1.23279 0.144419 0)
(-1.26348 -0.142203 0)
(-1.25011 -0.438248 0)
(-1.19726 -0.723801 0)
(-1.10805 -0.98493 0)
(-0.988014 -1.20862 0)
(-0.845986 -1.38336 0)
(-0.69457 -1.50058 0)
(-0.547025 -1.55612 0)
(-0.412596 -1.54781 0)
(-0.289532 -1.47007 0)
(-0.153423 -1.30162 0)
(-0.00827811 0.800693 0)
(-0.0515013 0.958932 0)
(-0.101515 0.968373 0)
(-0.156863 0.982997 0)
(-0.223792 1.00275 0)
(-0.304932 1.02341 0)
(-0.400545 1.03977 0)
(-0.511293 1.04314 0)
(-0.637084 1.0222 0)
(-0.776576 0.964888 0)
(-0.92357 0.860719 0)
(-1.06563 0.700365 0)
(-1.18368 0.478457 0)
(-1.25815 0.19776 0)
(-1.28472 -0.131137 0)
(-1.26126 -0.470664 0)
(-1.19414 -0.794626 0)
(-1.08755 -1.08698 0)
(-0.947888 -1.33395 0)
(-0.785044 -1.52424 0)
(-0.612356 -1.65033 0)
(-0.442416 -1.70963 0)
(-0.280562 -1.70188 0)
(-0.122849 -1.62791 0)
(0.0557119 -1.49249 0)
(0.000452552 0.817145 0)
(-0.032679 0.998112 0)
(-0.0714592 1.01254 0)
(-0.11672 1.03693 0)
(-0.174923 1.06885 0)
(-0.249074 1.10447 0)
(-0.341513 1.13852 0)
(-0.453633 1.16059 0)
(-0.586043 1.15674 0)
(-0.736774 1.111 0)
(-0.898703 1.00751 0)
(-1.05469 0.833538 0)
(-1.17892 0.585202 0)
(-1.2406 0.265959 0)
(-1.27156 -0.111422 0)
(-1.22842 -0.501546 0)
(-1.14579 -0.868541 0)
(-1.02332 -1.19501 0)
(-0.867677 -1.46758 0)
(-0.689041 -1.67614 0)
(-0.501826 -1.81433 0)
(-0.317343 -1.88062 0)
(-0.139115 -1.87589 0)
(0.0414967 -1.8075 0)
(0.232371 -1.69401 0)
(0.00970637 0.817883 0)
(-0.00886513 1.02465 0)
(-0.0340143 1.04592 0)
(-0.0658858 1.08145 0)
(-0.112249 1.12736 0)
(-0.17714 1.18093 0)
(-0.263086 1.23597 0)
(-0.372703 1.28079 0)
(-0.507323 1.29809 0)
(-0.666584 1.26722 0)
(-0.841302 1.16685 0)
(-1.00703 0.979939 0)
(-1.13076 0.699084 0)
(-1.18394 0.334492 0)
(-1.18159 -0.0957848 0)
(-1.12827 -0.539947 0)
(-1.0302 -0.951738 0)
(-0.896705 -1.31153 0)
(-0.732487 -1.60882 0)
(-0.547234 -1.8362 0)
(-0.355286 -1.98807 0)
(-0.166536 -2.06244 0)
(0.0192111 -2.06134 0)
(0.207802 -1.99783 0)
(0.399587 -1.89297 0)
(0.0218006 0.797833 0)
(0.0199431 1.03006 0)
(0.0120386 1.06527 0)
(-0.00432676 1.11289 0)
(-0.0361584 1.17483 0)
(-0.0881692 1.24894 0)
(-0.163968 1.32788 0)
(-0.265732 1.3984 0)
(-0.396916 1.44018 0)
(-0.558687 1.42809 0)
(-0.740249 1.33306 0)
(-0.910547 1.13134 0)
(-1.0219 0.818826 0)
(-1.04573 0.405866 0)
(-1.01197 -0.0809284 0)
(-0.937626 -0.582987 0)
(-0.828215 -1.0395 0)
(-0.69226 -1.42821 0)
(-0.530914 -1.74669 0)
(-0.351809 -1.99272 0)
(-0.168474 -2.16009 0)
(0.0136437 -2.24401 0)
(0.197108 -2.24664 0)
(0.381958 -2.18646 0)
(0.565782 -2.08415 0)
(0.0362236 0.752116 0)
(0.0545142 1.01712 0)
(0.0652843 1.06704 0)
(0.0677253 1.12766 0)
(0.0540805 1.20756 0)
(0.0174055 1.30377 0)
(-0.0438337 1.40876 0)
(-0.131815 1.50668 0)
(-0.250609 1.57523 0)
(-0.404949 1.58266 0)
(-0.587243 1.49102 0)
(-0.752321 1.27433 0)
(-0.834835 0.932655 0)
(-0.805867 0.479736 0)
(-0.744954 -0.0558635 0)
(-0.646152 -0.628255 0)
(-0.531121 -1.12813 0)
(-0.403761 -1.53706 0)
(-0.258989 -1.87047 0)
(-0.101322 -2.1347 0)
(0.0601232 -2.32023 0)
(0.226407 -2.41475 0)
(0.396704 -2.42274 0)
(0.56896 -2.36564 0)
(0.741256 -2.26388 0)
(0.0533682 0.673966 0)
(0.0940747 0.981798 0)
(0.126045 1.0485 0)
(0.1488 1.12252 0)
(0.155068 1.22092 0)
(0.138602 1.34065 0)
(0.0966351 1.47196 0)
(0.0292864 1.59843 0)
(-0.0670697 1.69334 0)
(-0.202829 1.71431 0)
(-0.36979 1.62028 0)
(-0.520703 1.38522 0)
(-0.569695 1.03136 0)
(-0.474744 0.583256 0)
(-0.400687 0.0121514 0)
(-0.271318 -0.672548 0)
(-0.156737 -1.21684 0)
(-0.0469036 -1.63469 0)
(0.0708213 -1.97486 0)
(0.196183 -2.25601 0)
(0.32986 -2.45789 0)
(0.470898 -2.56499 0)
(0.619374 -2.58159 0)
(0.772604 -2.52888 0)
(0.92704 -2.42844 0)
(0.0732117 0.555538 0)
(0.140396 0.920123 0)
(0.194113 1.00857 0)
(0.237693 1.09605 0)
(0.265998 1.21322 0)
(0.270847 1.35563 0)
(0.252325 1.51367 0)
(0.214765 1.6647 0)
(0.151232 1.77427 0)
(0.0536924 1.80584 0)
(-0.0864101 1.69769 0)
(-0.223985 1.4342 0)
(-0.23983 1.10383 0)
(-0.0229515 0.840143 0)
(-0.0194305 0.112704 0)
(0.135405 -0.725814 0)
(0.246904 -1.30761 0)
(0.342967 -1.72583 0)
(0.436705 -2.06473 0)
(0.532351 -2.3512 0)
(0.633481 -2.56637 0)
(0.743423 -2.68864 0)
(0.8634 -2.71618 0)
(0.991765 -2.67076 0)
(1.1244 -2.5737 0)
(0.0921308 0.384457 0)
(0.19034 0.822034 0)
(0.268023 0.944981 0)
(0.333322 1.04834 0)
(0.383945 1.18225 0)
(0.412412 1.34651 0)
(0.418177 1.52646 0)
(0.40952 1.69624 0)
(0.390675 1.83633 0)
(0.354701 1.83615 0)
(0.273741 1.69649 0)
(0.138881 1.3918 0)
(0.141194 1.02768 0)
(0.24177 0.713719 0)
(0.339484 0.0107083 0)
(0.521689 -0.812459 0)
(0.648412 -1.4036 0)
(0.744172 -1.8159 0)
(0.823768 -2.14197 0)
(0.893431 -2.42244 0)
(0.961987 -2.64478 0)
(1.03747 -2.78115 0)
(1.1251 -2.82165 0)
(1.22395 -2.78626 0)
(1.33 -2.69579 0)
(0.107453 0.150347 0)
(0.245023 0.666597 0)
(0.348428 0.85379 0)
(0.432648 0.977966 0)
(0.504394 1.12865 0)
(0.557223 1.31058 0)
(0.58727 1.50739 0)
(0.60656 1.69609 0)
(0.633095 1.81161 0)
(0.65986 1.79007 0)
(0.638976 1.60697 0)
(0.538214 1.24057 0)
(0.567492 0.830563 0)
(0.668419 0.355353 0)
(0.798537 -0.278878 0)
(0.957873 -0.954229 0)
(1.07225 -1.49934 0)
(1.1582 -1.8975 0)
(1.22237 -2.20555 0)
(1.26796 -2.47058 0)
(1.30444 -2.69193 0)
(1.34414 -2.84109 0)
(1.3964 -2.89402 0)
(1.46309 -2.87194 0)
(1.54008 -2.79144 0)
(0.108846 -0.157997 0)
(0.297943 0.431252 0)
(0.431884 0.727731 0)
(0.53427 0.886554 0)
(0.623069 1.05213 0)
(0.696135 1.24755 0)
(0.749199 1.4593 0)
(0.796992 1.64986 0)
(0.858682 1.74608 0)
(0.939242 1.7015 0)
(0.987878 1.46399 0)
(0.966301 1.06975 0)
(1.02544 0.612738 0)
(1.14906 0.103327 0)
(1.28146 -0.467054 0)
(1.4014 -1.05909 0)
(1.4942 -1.57474 0)
(1.56769 -1.96345 0)
(1.61706 -2.25234 0)
(1.6401 -2.49592 0)
(1.64558 -2.70827 0)
(1.65017 -2.86309 0)
(1.66798 -2.93182 0)
(1.70147 -2.92534 0)
(1.74728 -2.85829 0)
(0.096259 -0.476145 0)
(0.35145 0.0726521 0)
(0.517475 0.544541 0)
(0.63371 0.772875 0)
(0.73274 0.957663 0)
(0.823023 1.16084 0)
(0.897396 1.37697 0)
(0.970701 1.56136 0)
(1.05981 1.64701 0)
(1.18418 1.5796 0)
(1.30054 1.32205 0)
(1.37093 0.91831 0)
(1.47963 0.44917 0)
(1.60401 -0.0490838 0)
(1.70969 -0.583565 0)
(1.80459 -1.14137 0)
(1.88956 -1.64071 0)
(1.95619 -2.01675 0)
(1.99208 -2.28216 0)
(1.99263 -2.49885 0)
(1.96836 -2.6969 0)
(1.94108 -2.85479 0)
(1.92682 -2.93584 0)
(1.92827 -2.94683 0)
(1.9431 -2.89583 0)
(0.096485 -0.538303 0)
(0.381041 -0.365722 0)
(0.590832 0.279874 0)
(0.722575 0.633235 0)
(0.827076 0.849947 0)
(0.927965 1.05715 0)
(1.02631 1.26478 0)
(1.128 1.43456 0)
(1.24517 1.50758 0)
(1.40015 1.43004 0)
(1.56126 1.17327 0)
(1.69608 0.776751 0)
(1.83372 0.319412 0)
(1.95077 -0.178805 0)
(2.05595 -0.700251 0)
(2.1605 -1.23388 0)
(2.25175 -1.70906 0)
(2.31259 -2.06045 0)
(2.3328 -2.29439 0)
(2.30904 -2.47709 0)
(2.25552 -2.65696 0)
(2.1995 -2.81831 0)
(2.15742 -2.91684 0)
(2.12999 -2.93818 0)
(2.11637 -2.9066 0)
(0.0792818 -0.420429 0)
(0.26847 -0.588917 0)
(0.59487 -0.0260145 0)
(0.776168 0.462908 0)
(0.88976 0.734255 0)
(1.00304 0.941546 0)
(1.12592 1.12982 0)
(1.25929 1.273 0)
(1.40604 1.31969 0)
(1.57936 1.22514 0)
(1.7608 0.971889 0)
(1.92557 0.591001 0)
(2.07398 0.142852 0)
(2.21176 -0.345396 0)
(2.349 -0.845275 0)
(2.47872 -1.34348 0)
(2.57414 -1.77854 0)
(2.62193 -2.09095 0)
(2.61929 -2.28516 0)
(2.56727 -2.42968 0)
(2.48643 -2.5883 0)
(2.40703 -2.75141 0)
(2.34252 -2.86523 0)
(2.29258 -2.90731 0)
(2.25723 -2.88744 0)
(0.0949174 -0.399845 0)
(0.148801 -0.535514 0)
(0.497667 -0.320707 0)
(0.759313 0.25888 0)
(0.904651 0.604682 0)
(1.02989 0.813977 0)
(1.17506 0.973336 0)
(1.3394 1.07668 0)
(1.51704 1.08444 0)
(1.70948 0.964241 0)
(1.90373 0.707311 0)
(2.08627 0.345418 0)
(2.26168 -0.0858511 0)
(2.43634 -0.545353 0)
(2.60683 -1.00967 0)
(2.7499 -1.45864 0)
(2.83168 -1.83848 0)
(2.85235 -2.09953 0)
(2.8178 -2.24768 0)
(2.7355 -2.3569 0)
(2.63459 -2.49971 0)
(2.54387 -2.666 0)
(2.46919 -2.79568 0)
(2.40643 -2.85538 0)
(2.35819 -2.85486 0)
(0.109647 -0.513735 0)
(0.0466539 -0.595896 0)
(0.214953 -0.482584 0)
(0.603864 0.0371548 0)
(0.838427 0.454733 0)
(0.987834 0.670884 0)
(1.15189 0.798134 0)
(1.34222 0.857592 0)
(1.55108 0.82558 0)
(1.76893 0.680336 0)
(1.98576 0.4239 0)
(2.19468 0.0803633 0)
(2.40461 -0.326937 0)
(2.60932 -0.751794 0)
(2.79222 -1.17288 0)
(2.91351 -1.56236 0)
(2.95165 -1.87756 0)
(2.94553 -2.07896 0)
(2.88503 -2.17784 0)
(2.77924 -2.26115 0)
(2.67797 -2.404 0)
(2.59805 -2.58273 0)
(2.52972 -2.72435 0)
(2.46706 -2.79644 0)
(2.41601 -2.81379 0)
(0.0984304 -0.621673 0)
(-0.0236413 -0.631524 0)
(-0.161366 -0.593226 0)
(0.279173 -0.232545 0)
(0.638805 0.244559 0)
(0.845111 0.501211 0)
(1.03456 0.60911 0)
(1.24624 0.630506 0)
(1.48013 0.565004 0)
(1.72482 0.402087 0)
(1.96544 0.149051 0)
(2.20329 -0.183012 0)
(2.44353 -0.567727 0)
(2.66582 -0.956749 0)
(2.83272 -1.32254 0)
(2.91782 -1.64354 0)
(2.92866 -1.88844 0)
(2.89018 -2.02351 0)
(2.78943 -2.07904 0)
(2.68675 -2.1598 0)
(2.61985 -2.32457 0)
(2.57543 -2.51733 0)
(2.52837 -2.6621 0)
(2.47615 -2.74045 0)
(2.43157 -2.7732 0)
(0.0411286 -0.655155 0)
(-0.1125 -0.622238 0)
(-0.494323 -0.5994 0)
(-0.320107 -0.466618 0)
(0.194806 -0.0365322 0)
(0.549836 0.281383 0)
(0.787431 0.402595 0)
(1.02215 0.401858 0)
(1.26911 0.309214 0)
(1.52252 0.13043 0)
(1.77299 -0.135137 0)
(2.03651 -0.47401 0)
(2.28668 -0.829568 0)
(2.48939 -1.16296 0)
(2.65218 -1.45252 0)
(2.70061 -1.69363 0)
(2.67712 -1.86155 0)
(2.60312 -1.93715 0)
(2.52385 -1.98312 0)
(2.49181 -2.1004 0)
(2.50048 -2.29543 0)
(2.50379 -2.48674 0)
(2.48084 -2.61909 0)
(2.44444 -2.696 0)
(2.4132 -2.74127 0)
(-0.0359786 -0.63885 0)
(-0.256745 -0.540245 0)
(-0.687003 -0.509431 0)
(-0.713102 -0.446754 0)
(-0.445234 -0.236151 0)
(-0.0194423 0.0156488 0)
(0.315369 0.14351 0)
(0.579785 0.134447 0)
(0.828803 0.0255696 0)
(1.05055 -0.179393 0)
(1.28738 -0.474394 0)
(1.54582 -0.792222 0)
(1.79798 -1.08895 0)
(1.9889 -1.3449 0)
(2.11201 -1.55734 0)
(2.17824 -1.72454 0)
(2.19089 -1.8299 0)
(2.19549 -1.88782 0)
(2.23569 -1.97382 0)
(2.31685 -2.13639 0)
(2.38944 -2.32959 0)
(2.417 -2.48736 0)
(2.40758 -2.5938 0)
(2.38635 -2.66683 0)
(2.37102 -2.72276 0)
(-0.122858 -0.52596 0)
(-0.410428 -0.371855 0)
(-0.84128 -0.28338 0)
(-1.02262 -0.260815 0)
(-0.981694 -0.173364 0)
(-0.828682 -0.0976285 0)
(-0.696071 -0.0518559 0)
(-0.60838 -0.122372 0)
(-0.324422 -0.283066 0)
(0.0584235 -0.521136 0)
(0.48896 -0.807718 0)
(0.893032 -1.08451 0)
(1.22272 -1.32401 0)
(1.47791 -1.51677 0)
(1.66772 -1.67302 0)
(1.79908 -1.79248 0)
(1.90315 -1.8764 0)
(1.99816 -1.95896 0)
(2.12151 -2.082 0)
(2.235 -2.23761 0)
(2.30116 -2.38175 0)
(2.32031 -2.49275 0)
(2.31723 -2.57936 0)
(2.31273 -2.6537 0)
(2.31455 -2.71939 0)
(-0.224463 -0.297743 0)
(-0.583648 -0.135465 0)
(-1.00058 -0.0038567 0)
(-1.24775 0.0244111 0)
(-1.33886 -0.0106303 0)
(-1.31301 -0.0932918 0)
(-1.16958 -0.220555 0)
(-0.864759 -0.388913 0)
(-0.433064 -0.587895 0)
(0.0151612 -0.847557 0)
(0.429304 -1.13166 0)
(0.818674 -1.37132 0)
(1.13706 -1.55972 0)
(1.38572 -1.70841 0)
(1.57563 -1.82631 0)
(1.71915 -1.92014 0)
(1.84128 -2.00364 0)
(1.96241 -2.09705 0)
(2.07278 -2.20554 0)
(2.14879 -2.31357 0)
(2.18706 -2.40952 0)
(2.20484 -2.49654 0)
(2.21848 -2.58002 0)
(2.2333 -2.65922 0)
(2.24998 -2.7306 0)
(-0.292477 0.0164999 0)
(-0.690666 0.176852 0)
(-1.03026 0.277302 0)
(-1.24914 0.284063 0)
(-1.31164 0.209073 0)
(-1.24535 0.0637094 0)
(-0.959001 -0.152232 0)
(-0.644003 -0.418809 0)
(-0.248143 -0.73549 0)
(0.159291 -1.11648 0)
(0.543036 -1.42849 0)
(0.876935 -1.65105 0)
(1.14941 -1.80601 0)
(1.36452 -1.91454 0)
(1.53232 -1.99496 0)
(1.66785 -2.06336 0)
(1.78432 -2.13152 0)
(1.88427 -2.20354 0)
(1.96146 -2.27774 0)
(2.01583 -2.35357 0)
(2.0571 -2.43358 0)
(2.0936 -2.51792 0)
(2.12665 -2.60212 0)
(2.15579 -2.68099 0)
(2.18195 -2.75228 0)
(-0.245346 0.287113 0)
(-0.5985 0.454432 0)
(-0.877996 0.50705 0)
(-1.03251 0.441721 0)
(-1.01155 0.23605 0)
(-0.846793 -0.0694962 0)
(-0.648331 -0.385927 0)
(-0.392398 -0.701601 0)
(-0.0641882 -1.05169 0)
(0.283451 -1.4553 0)
(0.611439 -1.76017 0)
(0.894534 -1.94306 0)
(1.12816 -2.04335 0)
(1.31528 -2.1008 0)
(1.46421 -2.14243 0)
(1.58469 -2.18264 0)
(1.68413 -2.22645 0)
(1.76656 -2.27583 0)
(1.83633 -2.33377 0)
(1.8986 -2.4024 0)
(1.95537 -2.47956 0)
(2.00501 -2.55962 0)
(2.04636 -2.63742 0)
(2.08042 -2.71066 0)
(2.11048 -2.7793 0)
(-0.173893 0.572171 0)
(-0.400527 0.686695 0)
(-0.60001 0.664265 0)
(-0.651403 0.469155 0)
(-0.487691 0.0962497 0)
(-0.293697 -0.279388 0)
(-0.196244 -0.630861 0)
(-0.0340639 -0.945599 0)
(0.195921 -1.30305 0)
(0.472527 -1.71581 0)
(0.737219 -2.01507 0)
(0.965048 -2.16272 0)
(1.15097 -2.22134 0)
(1.2996 -2.24363 0)
(1.419 -2.25835 0)
(1.51766 -2.27794 0)
(1.60307 -2.30706 0)
(1.68093 -2.3483 0)
(1.75383 -2.40227 0)
(1.82076 -2.46616 0)
(1.87924 -2.53515 0)
(1.92821 -2.60527 0)
(1.96878 -2.67463 0)
(2.00408 -2.74269 0)
(2.0368 -2.80926 0)
(-0.084645 0.759026 0)
(-0.168492 0.832524 0)
(-0.277705 0.769648 0)
(-0.217637 0.477872 0)
(0.140954 0.0231947 0)
(0.220191 -0.385044 0)
(0.230987 -0.818805 0)
(0.321279 -1.13724 0)
(0.482679 -1.49645 0)
(0.692361 -1.9148 0)
(0.895463 -2.20677 0)
(1.06402 -2.32676 0)
(1.19827 -2.35562 0)
(1.3063 -2.3541 0)
(1.39692 -2.35175 0)
(1.47789 -2.3606 0)
(1.55422 -2.3841 0)
(1.62695 -2.42166 0)
(1.69433 -2.47017 0)
(1.7544 -2.52577 0)
(1.80657 -2.58552 0)