/*--------------------------------*- C++ -*----------------------------------*\
  =========                 |
  \\      /  F ield         | OpenFOAM: The Open Source CFD Toolbox
   \\    /   O peration     | Website:  https://openfoam.org
    \\  /    A nd           | Version:  13
     \\/     M anipulation  |
\*---------------------------------------------------------------------------*/
FoamFile
{
    format      ascii;
    class       volScalarField;
    location    "9";
    object      p;
}
// * * * * * * * * * * * * * * * * * * * * * * * * * * * * * * * * * * * * * //

dimensions      [0 2 -2 0 0 0 0];

internalField   nonuniform List<scalar> 
6440
(
0.00153637
0.00153642
0.0015366
0.00153687
0.00153719
0.00153749
0.00153766
0.00153763
0.00153729
0.00153656
0.00153536
0.00153364
0.00153136
0.00152854
0.00152524
0.00152154
0.00151755
0.00151339
0.00150918
0.00150503
0.00150096
0.001497
0.00149322
0.00148961
0.00148653
0.00153588
0.00153599
0.00153629
0.00153673
0.00153729
0.00153791
0.0015385
0.00153899
0.00153926
0.00153923
0.0015388
0.00153787
0.00153636
0.00153422
0.0015314
0.00152789
0.00152372
0.00151896
0.0015137
0.00150802
0.00150201
0.00149573
0.00148947
0.00148348
0.00147821
0.0015349
0.00153512
0.00153558
0.00153627
0.00153716
0.0015382
0.00153931
0.0015404
0.00154136
0.00154207
0.00154242
0.00154228
0.00154151
0.00153999
0.00153762
0.0015343
0.00152999
0.00152474
0.00151862
0.00151171
0.00150413
0.00149604
0.00148783
0.00148014
0.00147369
0.0015332
0.00153353
0.00153416
0.0015351
0.00153632
0.00153776
0.00153936
0.001541
0.00154256
0.00154392
0.00154494
0.00154545
0.00154528
0.00154429
0.0015423
0.00153919
0.00153483
0.00152928
0.00152258
0.00151485
0.00150624
0.00149692
0.00148734
0.00147838
0.00147099
0.00153058
0.001531
0.0015318
0.00153299
0.00153453
0.00153635
0.00153839
0.00154054
0.00154266
0.00154462
0.00154624
0.00154736
0.00154778
0.00154731
0.00154576
0.00154296
0.00153874
0.00153312
0.00152613
0.00151789
0.00150858
0.00149838
0.00148774
0.00147768
0.00146939
0.00152695
0.00152746
0.00152842
0.00152984
0.00153168
0.00153388
0.00153634
0.00153898
0.00154164
0.00154417
0.0015464
0.00154813
0.00154917
0.0015493
0.00154829
0.00154595
0.00154208
0.00153662
0.0015296
0.0015211
0.00151129
0.00150037
0.0014888
0.00147771
0.00146853
0.00152228
0.00152289
0.001524
0.00152564
0.00152777
0.00153033
0.00153321
0.0015363
0.00153949
0.0015426
0.00154544
0.00154782
0.00154952
0.00155032
0.00154998
0.00154826
0.00154495
0.00153986
0.00153303
0.00152446
0.0015143
0.00150274
0.00149029
0.00147817
0.0014681
0.0015166
0.00151729
0.00151854
0.00152039
0.00152281
0.0015257
0.00152899
0.00153254
0.00153625
0.00153992
0.00154338
0.00154643
0.00154884
0.00155039
0.00155082
0.00154987
0.00154728
0.00154281
0.00153633
0.00152789
0.0015175
0.00150539
0.00149205
0.00147891
0.00146793
0.00150995
0.00151071
0.00151209
0.00151414
0.00151681
0.00152003
0.0015237
0.0015277
0.0015319
0.00153615
0.00154023
0.00154396
0.00154713
0.00154948
0.00155076
0.00155069
0.00154897
0.00154533
0.00153943
0.00153128
0.00152084
0.00150825
0.00149406
0.00147989
0.00146796
0.0015024
0.00150322
0.00150471
0.00150692
0.00150982
0.00151333
0.00151735
0.00152177
0.00152645
0.00153126
0.00153597
0.0015404
0.00154433
0.00154753
0.00154972
0.00155062
0.00154989
0.0015472
0.00154218
0.00153453
0.00152426
0.00151135
0.00149636
0.00148113
0.00146821
0.00149402
0.00149489
0.00149646
0.00149881
0.00150189
0.00150564
0.00150997
0.00151476
0.0015199
0.00152524
0.00153056
0.00153569
0.00154039
0.00154445
0.0015476
0.00154953
0.0015499
0.00154831
0.00154434
0.00153757
0.00152768
0.00151466
0.00149898
0.00148265
0.00146875
0.00148493
0.00148582
0.00148744
0.00148987
0.00149307
0.001497
0.00150156
0.00150667
0.0015122
0.00151801
0.00152392
0.00152972
0.0015352
0.00154013
0.00154426
0.00154728
0.00154883
0.00154849
0.00154576
0.00154012
0.00153104
0.0015182
0.00150203
0.00148468
0.00146981
0.00147522
0.00147611
0.00147774
0.0014802
0.00148346
0.00148747
0.00149217
0.00149748
0.0015033
0.00150948
0.0015159
0.00152234
0.00152858
0.0015344
0.00153953
0.00154369
0.00154651
0.00154756
0.00154629
0.00154207
0.00153423
0.00152206
0.00150568
0.00148749
0.00147165
0.00146505
0.00146591
0.0014675
0.00146992
0.00147314
0.00147713
0.00148184
0.00148721
0.00149316
0.00149957
0.00150635
0.00151333
0.00152028
0.00152697
0.00153315
0.00153851
0.00154271
0.00154531
0.00154575
0.0015433
0.0015371
0.00152623
0.00151018
0.00149145
0.00147478
0.00145455
0.00145535
0.00145686
0.00145916
0.00146225
0.0014661
0.00147067
0.00147592
0.0014818
0.00148822
0.00149515
0.00150246
0.00151
0.00151749
0.0015247
0.00153134
0.00153705
0.00154141
0.00154384
0.00154356
0.00153954
0.00153056
0.00151582
0.00149707
0.00147982
0.00144388
0.00144461
0.00144599
0.0014481
0.00145095
0.00145451
0.00145877
0.0014637
0.00146926
0.00147545
0.00148224
0.00148957
0.00149738
0.00150548
0.00151362
0.00152154
0.00152889
0.00153524
0.00154001
0.00154241
0.00154127
0.00153515
0.00152278
0.00150516
0.00148781
0.00143324
0.00143387
0.00143506
0.00143691
0.00143941
0.00144255
0.00144632
0.00145071
0.00145571
0.00146135
0.00146765
0.00147461
0.00148223
0.0014905
0.00149922
0.00150818
0.00151711
0.00152562
0.00153316
0.00153888
0.00154157
0.00153979
0.00153147
0.00151693
0.00150051
0.00142278
0.00142328
0.00142425
0.00142576
0.00142782
0.00143041
0.00143352
0.00143716
0.00144136
0.00144615
0.00145159
0.00145772
0.00146461
0.00147232
0.00148096
0.00149036
0.00150038
0.00151082
0.00152126
0.00153104
0.00153902
0.00154345
0.00154182
0.00153383
0.00152136
0.00141268
0.00141304
0.00141375
0.00141489
0.00141643
0.00141837
0.00142072
0.00142348
0.0014267
0.00143041
0.00143468
0.00143959
0.00144524
0.00145176
0.00145929
0.00146811
0.00147824
0.00148961
0.00150224
0.00151594
0.0015302
0.0015434
0.00155277
0.00155787
0.00155743
0.00140307
0.0014033
0.00140378
0.00140454
0.00140559
0.00140692
0.00140853
0.00141045
0.0014127
0.00141534
0.00141842
0.00142203
0.00142628
0.00143132
0.00143737
0.00144469
0.00145363
0.00146468
0.00147804
0.00149403
0.00151331
0.00153628
0.00156183
0.00159025
0.00161987
0.00139404
0.00139421
0.00139456
0.00139512
0.00139591
0.00139691
0.00139814
0.00139962
0.00140137
0.00140343
0.00140587
0.00140877
0.00141225
0.00141645
0.00142159
0.0014279
0.00143572
0.00144549
0.00145791
0.00147386
0.00149433
0.00152063
0.00155628
0.00161038
0.00170602
0.00138537
0.00138553
0.00138587
0.00138642
0.00138718
0.00138816
0.00138937
0.00139082
0.00139254
0.00139457
0.00139698
0.00139984
0.00140328
0.00140744
0.00141251
0.00141875
0.0014265
0.00143618
0.00144839
0.00146398
0.00148399
0.00151033
0.00154637
0.00159863
0.00167373
0.00137703
0.00137721
0.00137756
0.00137813
0.00137891
0.00137993
0.00138118
0.00138268
0.00138445
0.00138655
0.00138902
0.00139195
0.00139544
0.00139965
0.00140475
0.00141097
0.00141862
0.00142809
0.00143989
0.00145469
0.00147338
0.00149728
0.00152827
0.00156837
0.00161646
0.00136903
0.00136921
0.00136957
0.00137015
0.00137096
0.00137199
0.00137326
0.00137478
0.00137658
0.00137869
0.00138117
0.00138408
0.00138754
0.00139166
0.00139662
0.0014026
0.00140986
0.00141872
0.00142955
0.00144282
0.0014591
0.00147902
0.00150314
0.00153125
0.0015605
0.00136135
0.00136153
0.0013619
0.00136247
0.00136327
0.0013643
0.00136555
0.00136705
0.00136881
0.00137086
0.00137325
0.00137605
0.00137933
0.00138321
0.00138782
0.00139331
0.00139989
0.00140775
0.00141715
0.00142835
0.00144157
0.00145695
0.00147431
0.00149261
0.00150934
0.00135399
0.00135417
0.00135453
0.00135509
0.00135586
0.00135685
0.00135805
0.00135948
0.00136115
0.00136308
0.00136531
0.00136789
0.00137089
0.0013744
0.00137851
0.00138333
0.00138899
0.00139562
0.00140334
0.00141222
0.00142227
0.0014333
0.00144481
0.00145566
0.00146395
0.00134695
0.00134713
0.00134747
0.001348
0.00134873
0.00134965
0.00135077
0.00135209
0.00135362
0.00135538
0.00135739
0.00135969
0.00136232
0.00136536
0.00136886
0.00137289
0.00137752
0.0013828
0.00138875
0.00139533
0.00140238
0.00140958
0.00141632
0.00142162
0.00142408
0.00134023
0.0013404
0.00134071
0.0013412
0.00134187
0.00134271
0.00134373
0.00134491
0.00134627
0.00134781
0.00134955
0.00135151
0.00135372
0.00135622
0.00135905
0.00136223
0.00136578
0.0013697
0.00137392
0.00137835
0.00138273
0.00138671
0.0013897
0.00139088
0.00138924
0.00133383
0.00133399
0.00133427
0.0013347
0.00133529
0.00133604
0.00133693
0.00133795
0.00133911
0.00134041
0.00134184
0.00134343
0.00134518
0.00134711
0.00134924
0.00135155
0.00135404
0.00135665
0.00135928
0.00136178
0.00136388
0.00136522
0.0013653
0.00136345
0.00135891
0.00132775
0.00132788
0.00132813
0.0013285
0.00132901
0.00132964
0.00133039
0.00133124
0.00133218
0.00133321
0.00133432
0.00133552
0.00133679
0.00133815
0.00133958
0.00134105
0.00134252
0.00134392
0.00134513
0.00134595
0.00134616
0.00134539
0.00134323
0.00133916
0.0013326
0.00132199
0.0013221
0.0013223
0.00132261
0.00132303
0.00132354
0.00132413
0.00132479
0.0013255
0.00132626
0.00132704
0.00132784
0.00132864
0.00132944
0.00133019
0.00133087
0.00133142
0.00133173
0.00133169
0.0013311
0.00132975
0.00132733
0.00132347
0.00131779
0.00130983
0.00131654
0.00131664
0.00131679
0.00131703
0.00131735
0.00131774
0.00131817
0.00131864
0.00131912
0.00131959
0.00132005
0.00132046
0.0013208
0.00132106
0.00132119
0.00132114
0.00132085
0.00132021
0.0013191
0.00131735
0.00131474
0.00131103
0.00130592
0.00129908
0.00129019
0.00131143
0.00131149
0.0013116
0.00131177
0.00131199
0.00131225
0.00131253
0.0013128
0.00131305
0.00131325
0.00131338
0.00131342
0.00131333
0.00131309
0.00131265
0.00131195
0.00131092
0.00130947
0.00130747
0.00130476
0.00130116
0.00129647
0.00129043
0.0012828
0.00127332
0.00130663
0.00130668
0.00130674
0.00130684
0.00130696
0.00130709
0.00130721
0.00130729
0.00130732
0.00130726
0.00130708
0.00130677
0.00130629
0.00130559
0.00130464
0.00130336
0.0013017
0.00129956
0.00129682
0.00129335
0.00128899
0.00128356
0.00127686
0.00126871
0.0012589
0.00130217
0.00130219
0.00130221
0.00130223
0.00130226
0.00130226
0.00130223
0.00130213
0.00130194
0.00130164
0.00130118
0.00130055
0.0012997
0.0012986
0.00129719
0.00129542
0.00129323
0.00129051
0.00128718
0.00128311
0.00127817
0.0012722
0.00126507
0.0012566
0.00124664
0.00129803
0.00129803
0.001298
0.00129796
0.00129789
0.00129778
0.0012976
0.00129733
0.00129694
0.00129641
0.00129569
0.00129477
0.00129359
0.00129214
0.00129034
0.00128816
0.00128551
0.00128234
0.00127853
0.00127401
0.00126864
0.00126231
0.00125489
0.00124626
0.00123632
0.00129421
0.00129419
0.00129412
0.00129402
0.00129386
0.00129364
0.00129333
0.0012929
0.00129232
0.00129158
0.00129063
0.00128945
0.00128799
0.00128623
0.0012841
0.00128157
0.00127856
0.00127502
0.00127086
0.00126599
0.00126032
0.00125376
0.00124619
0.00123753
0.0012277
0.00129073
0.00129069
0.00129058
0.00129041
0.00129018
0.00128985
0.00128941
0.00128883
0.0012881
0.00128716
0.00128601
0.0012846
0.0012829
0.00128087
0.00127847
0.00127566
0.00127236
0.00126854
0.00126411
0.001259
0.00125314
0.00124645
0.00123884
0.00123025
0.0012206
0.00128757
0.00128751
0.00128736
0.00128714
0.00128683
0.00128641
0.00128585
0.00128515
0.00128426
0.00128316
0.00128183
0.00128023
0.00127832
0.00127608
0.00127345
0.00127041
0.0012669
0.00126286
0.00125824
0.00125298
0.00124702
0.00124028
0.00123271
0.00122425
0.00121486
0.00128472
0.00128465
0.00128447
0.0012842
0.00128382
0.00128331
0.00128266
0.00128183
0.00128082
0.00127958
0.00127809
0.00127632
0.00127424
0.00127182
0.00126903
0.00126581
0.00126213
0.00125795
0.00125321
0.00124787
0.00124187
0.00123516
0.00122769
0.00121942
0.00121032
0.00128219
0.0012821
0.0012819
0.00128158
0.00128114
0.00128055
0.00127981
0.00127889
0.00127776
0.0012764
0.00127478
0.00127288
0.00127066
0.0012681
0.00126517
0.00126183
0.00125804
0.00125377
0.00124897
0.0012436
0.00123762
0.00123099
0.00122367
0.00121563
0.00120685
0.00127997
0.00127987
0.00127964
0.00127928
0.00127878
0.00127813
0.00127732
0.0012763
0.00127508
0.00127361
0.00127189
0.00126988
0.00126756
0.0012649
0.00126187
0.00125844
0.00125458
0.00125027
0.00124545
0.0012401
0.00123419
0.00122769
0.00122056
0.00121278
0.00120434
0.00127805
0.00127794
0.00127768
0.00127729
0.00127675
0.00127604
0.00127516
0.00127407
0.00127277
0.00127122
0.00126941
0.00126732
0.00126491
0.00126218
0.00125909
0.00125561
0.00125172
0.0012474
0.00124261
0.00123732
0.00123152
0.00122517
0.00121825
0.00121076
0.00120267
0.00127643
0.0012763
0.00127602
0.0012756
0.00127502
0.00127427
0.00127333
0.00127218
0.00127081
0.0012692
0.00126733
0.00126517
0.00126271
0.00125993
0.0012568
0.00125331
0.00124942
0.00124512
0.00124039
0.00123519
0.00122952
0.00122335
0.00121668
0.00120948
0.00120175
0.00127508
0.00127494
0.00127466
0.00127421
0.0012736
0.0012728
0.00127182
0.00127062
0.0012692
0.00126754
0.00126562
0.00126342
0.00126093
0.00125812
0.00125499
0.0012515
0.00124764
0.00124339
0.00123874
0.00123366
0.00122815
0.00122218
0.00121575
0.00120886
0.0012015
0.00127401
0.00127387
0.00127356
0.0012731
0.00127246
0.00127163
0.00127061
0.00126938
0.00126792
0.00126623
0.00126427
0.00126205
0.00125954
0.00125673
0.00125361
0.00125015
0.00124634
0.00124217
0.00123762
0.00123268
0.00122733
0.00122158
0.00121541
0.00120883
0.00120183
0.0012732
0.00127305
0.00127274
0.00127225
0.00127159
0.00127075
0.0012697
0.00126844
0.00126696
0.00126524
0.00126327
0.00126104
0.00125853
0.00125573
0.00125263
0.00124922
0.00124548
0.0012414
0.00123697
0.00123218
0.00122703
0.0012215
0.00121559
0.00120932
0.00120267
0.00127263
0.00127248
0.00127216
0.00127167
0.00127099
0.00127013
0.00126906
0.00126778
0.00126628
0.00126455
0.00126258
0.00126035
0.00125786
0.00125509
0.00125204
0.00124869
0.00124503
0.00124106
0.00123676
0.00123214
0.00122717
0.00122187
0.00121623
0.00121026
0.00120397
0.00127231
0.00127215
0.00127183
0.00127133
0.00127064
0.00126976
0.00126868
0.0012674
0.00126589
0.00126416
0.00126219
0.00125998
0.00125752
0.00125479
0.0012518
0.00124852
0.00124496
0.0012411
0.00123695
0.00123249
0.00122772
0.00122266
0.00121728
0.00121162
0.00120566
0.00127221
0.00127205
0.00127172
0.00127122
0.00127052
0.00126964
0.00126856
0.00126727
0.00126576
0.00126404
0.00126209
0.0012599
0.00125748
0.0012548
0.00125187
0.00124868
0.00124522
0.00124149
0.00123748
0.0012332
0.00122864
0.0012238
0.00121869
0.00121332
0.00120769
0.00127232
0.00127216
0.00127183
0.00127132
0.00127063
0.00126974
0.00126866
0.00126737
0.00126588
0.00126417
0.00126224
0.00126009
0.00125771
0.0012551
0.00125224
0.00124914
0.00124579
0.00124219
0.00123834
0.00123423
0.00122987
0.00122527
0.00122042
0.00121533
0.00121002
0.00127263
0.00127247
0.00127215
0.00127164
0.00127094
0.00127006
0.00126898
0.0012677
0.00126622
0.00126454
0.00126264
0.00126053
0.0012582
0.00125565
0.00125288
0.00124988
0.00124664
0.00124318
0.00123948
0.00123555
0.0012314
0.00122701
0.00122242
0.00121761
0.00121261
0.00127313
0.00127297
0.00127265
0.00127214
0.00127145
0.00127057
0.0012695
0.00126824
0.00126678
0.00126512
0.00126326
0.0012612
0.00125893
0.00125645
0.00125376
0.00125086
0.00124774
0.00124442
0.00124088
0.00123712
0.00123317
0.00122901
0.00122465
0.00122012
0.00121541
0.0012738
0.00127364
0.00127332
0.00127282
0.00127214
0.00127127
0.00127021
0.00126897
0.00126753
0.0012659
0.00126408
0.00126207
0.00125986
0.00125746
0.00125486
0.00125206
0.00124907
0.00124588
0.00124249
0.00123892
0.00123516
0.00123121
0.0012271
0.00122282
0.00121839
0.00127463
0.00127448
0.00127416
0.00127366
0.00127299
0.00127213
0.00127109
0.00126987
0.00126846
0.00126687
0.00126509
0.00126314
0.00126099
0.00125867
0.00125616
0.00125347
0.0012506
0.00124754
0.00124431
0.00124091
0.00123734
0.0012336
0.00122972
0.00122569
0.00122152
0.00127561
0.00127546
0.00127514
0.00127466
0.00127399
0.00127315
0.00127213
0.00127093
0.00126955
0.001268
0.00126627
0.00126437
0.0012623
0.00126005
0.00125764
0.00125505
0.0012523
0.00124938
0.0012463
0.00124307
0.00123968
0.00123615
0.00123248
0.00122869
0.00122478
0.00127672
0.00127658
0.00127627
0.00127579
0.00127514
0.00127431
0.00127331
0.00127214
0.00127079
0.00126928
0.0012676
0.00126576
0.00126375
0.00126159
0.00125927
0.00125679
0.00125415
0.00125137
0.00124844
0.00124537
0.00124216
0.00123882
0.00123537
0.00123181
0.00122814
0.00127796
0.00127782
0.00127752
0.00127705
0.00127641
0.0012756
0.00127462
0.00127347
0.00127216
0.00127069
0.00126907
0.00126728
0.00126535
0.00126327
0.00126104
0.00125866
0.00125615
0.00125349
0.00125071
0.00124779
0.00124476
0.00124161
0.00123836
0.00123501
0.00123158
0.00127931
0.00127917
0.00127888
0.00127842
0.00127779
0.001277
0.00127605
0.00127493
0.00127366
0.00127223
0.00127065
0.00126893
0.00126707
0.00126506
0.00126293
0.00126065
0.00125825
0.00125573
0.00125308
0.00125032
0.00124745
0.00124449
0.00124143
0.00123828
0.00123507
0.00128076
0.00128062
0.00128034
0.00127989
0.00127928
0.00127851
0.00127758
0.00127649
0.00127525
0.00127387
0.00127235
0.00127069
0.00126889
0.00126697
0.00126492
0.00126275
0.00126046
0.00125806
0.00125555
0.00125294
0.00125023
0.00124743
0.00124455
0.00124161
0.0012386
0.00128229
0.00128216
0.00128189
0.00128145
0.00128085
0.0012801
0.0012792
0.00127814
0.00127694
0.0012756
0.00127413
0.00127253
0.00127081
0.00126896
0.001267
0.00126493
0.00126275
0.00126047
0.00125809
0.00125562
0.00125306
0.00125043
0.00124773
0.00124497
0.00124216
0.00128391
0.00128378
0.00128351
0.00128309
0.00128251
0.00128178
0.0012809
0.00127988
0.00127871
0.00127742
0.001276
0.00127446
0.0012728
0.00127103
0.00126916
0.00126718
0.00126511
0.00126294
0.00126069
0.00125835
0.00125594
0.00125346
0.00125093
0.00124834
0.00124572
0.00128559
0.00128547
0.00128521
0.0012848
0.00128423
0.00128352
0.00128267
0.00128168
0.00128055
0.0012793
0.00127793
0.00127645
0.00127486
0.00127317
0.00127138
0.00126949
0.00126752
0.00126546
0.00126333
0.00126112
0.00125885
0.00125652
0.00125414
0.00125172
0.00124927
0.00128733
0.00128722
0.00128696
0.00128656
0.00128602
0.00128533
0.0012845
0.00128354
0.00128245
0.00128124
0.00127992
0.0012785
0.00127697
0.00127535
0.00127364
0.00127185
0.00126997
0.00126802
0.001266
0.00126392
0.00126178
0.00125959
0.00125736
0.0012551
0.00125281
0.00128912
0.00128901
0.00128876
0.00128837
0.00128784
0.00128718
0.00128637
0.00128544
0.00128439
0.00128323
0.00128196
0.00128059
0.00127912
0.00127757
0.00127594
0.00127423
0.00127245
0.0012706
0.00126869
0.00126673
0.00126472
0.00126266
0.00126057
0.00125845
0.00125632
0.00129095
0.00129084
0.0012906
0.00129023
0.00128971
0.00128907
0.00128829
0.00128739
0.00128637
0.00128525
0.00128403
0.00128271
0.00128131
0.00127983
0.00127827
0.00127664
0.00127495
0.0012732
0.0012714
0.00126954
0.00126765
0.00126572
0.00126376
0.00126178
0.00125979
0.0012928
0.0012927
0.00129247
0.00129211
0.00129161
0.00129098
0.00129023
0.00128936
0.00128838
0.0012873
0.00128612
0.00128486
0.00128351
0.0012821
0.00128061
0.00127906
0.00127746
0.0012758
0.00127409
0.00127235
0.00127056
0.00126875
0.00126692
0.00126507
0.00126322
0.00129468
0.00129458
0.00129436
0.00129401
0.00129353
0.00129292
0.00129219
0.00129135
0.00129041
0.00128936
0.00128823
0.00128702
0.00128573
0.00128438
0.00128296
0.00128149
0.00127996
0.00127839
0.00127678
0.00127513
0.00127346
0.00127176
0.00127004
0.00126832
0.00126659
0.00129657
0.00129648
0.00129627
0.00129593
0.00129546
0.00129487
0.00129417
0.00129336
0.00129244
0.00129144
0.00129035
0.00128918
0.00128795
0.00128666
0.00128531
0.00128391
0.00128246
0.00128097
0.00127945
0.0012779
0.00127632
0.00127473
0.00127312
0.00127151
0.0012699
0.00129847
0.00129838
0.00129818
0.00129785
0.0012974
0.00129683
0.00129615
0.00129536
0.00129448
0.00129351
0.00129247
0.00129135
0.00129017
0.00128893
0.00128764
0.00128631
0.00128494
0.00128353
0.00128209
0.00128063
0.00127915
0.00127765
0.00127615
0.00127465
0.00127315
0.00130036
0.00130028
0.00130009
0.00129977
0.00129934
0.00129879
0.00129813
0.00129737
0.00129652
0.00129558
0.00129457
0.0012935
0.00129237
0.00129119
0.00128996
0.00128869
0.00128739
0.00128605
0.0012847
0.00128332
0.00128192
0.00128052
0.00127912
0.00127771
0.00127632
0.00130225
0.00130217
0.00130199
0.00130168
0.00130126
0.00130073
0.00130009
0.00129936
0.00129854
0.00129764
0.00129667
0.00129564
0.00129455
0.00129342
0.00129225
0.00129104
0.00128981
0.00128854
0.00128726
0.00128596
0.00128465
0.00128333
0.00128202
0.00128071
0.00127942
0.00130412
0.00130405
0.00130387
0.00130358
0.00130318
0.00130266
0.00130205
0.00130134
0.00130054
0.00129967
0.00129874
0.00129775
0.00129671
0.00129563
0.00129451
0.00129336
0.00129219
0.00129099
0.00128978
0.00128855
0.00128732
0.00128609
0.00128486
0.00128364
0.00128243
0.00130597
0.00130591
0.00130574
0.00130546
0.00130507
0.00130457
0.00130398
0.00130329
0.00130252
0.00130169
0.00130079
0.00129983
0.00129884
0.0012978
0.00129673
0.00129564
0.00129452
0.00129339
0.00129224
0.00129108
0.00128992
0.00128877
0.00128762
0.00128648
0.00128536
0.0013078
0.00130774
0.00130758
0.00130731
0.00130693
0.00130645
0.00130588
0.00130521
0.00130447
0.00130366
0.0013028
0.00130188
0.00130093
0.00129993
0.00129891
0.00129787
0.00129681
0.00129573
0.00129464
0.00129355
0.00129246
0.00129138
0.0012903
0.00128924
0.0012882
0.00130959
0.00130954
0.00130939
0.00130913
0.00130877
0.0013083
0.00130775
0.0013071
0.00130639
0.00130561
0.00130477
0.00130389
0.00130297
0.00130202
0.00130104
0.00130005
0.00129903
0.00129801
0.00129698
0.00129596
0.00129493
0.00129391
0.0012929
0.00129191
0.00129095
0.00131135
0.00131131
0.00131117
0.00131092
0.00131057
0.00131012
0.00130958
0.00130896
0.00130826
0.00130751
0.0013067
0.00130585
0.00130497
0.00130405
0.00130312
0.00130217
0.0013012
0.00130023
0.00129926
0.00129829
0.00129732
0.00129636
0.00129542
0.0012945
0.0012936
0.00131307
0.00131303
0.0013129
0.00131266
0.00131233
0.00131189
0.00131137
0.00131077
0.0013101
0.00130936
0.00130858
0.00130776
0.00130691
0.00130604
0.00130514
0.00130423
0.00130331
0.00130239
0.00130146
0.00130054
0.00129963
0.00129873
0.00129785
0.00129699
0.00129615
0.00131475
0.00131471
0.00131459
0.00131437
0.00131404
0.00131362
0.00131311
0.00131253
0.00131188
0.00131117
0.00131042
0.00130962
0.0013088
0.00130796
0.0013071
0.00130623
0.00130535
0.00130447
0.00130359
0.00130272
0.00130186
0.00130101
0.00130018
0.00129938
0.0012986
0.00131637
0.00131635
0.00131624
0.00131602
0.00131571
0.0013153
0.00131481
0.00131424
0.00131361
0.00131292
0.00131219
0.00131143
0.00131063
0.00130982
0.00130899
0.00130815
0.00130731
0.00130647
0.00130564
0.00130481
0.001304
0.0013032
0.00130243
0.00130167
0.00130095
0.00131794
0.00131793
0.00131783
0.00131763
0.00131733
0.00131693
0.00131646
0.00131591
0.00131529
0.00131462
0.00131391
0.00131317
0.0013124
0.00131161
0.00131081
0.00131001
0.0013092
0.0013084
0.00130761
0.00130682
0.00130605
0.0013053
0.00130457
0.00130387
0.00130319
0.00131946
0.00131946
0.00131937
0.00131918
0.00131889
0.00131851
0.00131805
0.00131751
0.00131691
0.00131626
0.00131557
0.00131484
0.0013141
0.00131334
0.00131257
0.00131179
0.00131102
0.00131025
0.00130949
0.00130874
0.00130801
0.0013073
0.00130662
0.00130596
0.00130533
0.00132093
0.00132093
0.00132086
0.00132068
0.0013204
0.00132003
0.00131958
0.00131906
0.00131847
0.00131784
0.00131716
0.00131646
0.00131573
0.00131499
0.00131424
0.00131349
0.00131275
0.00131201
0.00131128
0.00131057
0.00130988
0.00130921
0.00130856
0.00130794
0.00130735
0.00132233
0.00132235
0.00132229
0.00132212
0.00132186
0.0013215
0.00132106
0.00132055
0.00131997
0.00131935
0.00131869
0.001318
0.00131729
0.00131657
0.00131584
0.00131512
0.0013144
0.00131369
0.00131299
0.00131231
0.00131165
0.00131101
0.0013104
0.00130982
0.00130927
0.00132367
0.00132371
0.00132366
0.00132351
0.00132326
0.00132291
0.00132248
0.00132197
0.00132141
0.00132079
0.00132014
0.00131947
0.00131877
0.00131807
0.00131736
0.00131666
0.00131596
0.00131527
0.0013146
0.00131395
0.00131332
0.00131271
0.00131213
0.00131159
0.00131107
0.00132496
0.00132501
0.00132498
0.00132484
0.0013246
0.00132426
0.00132384
0.00132334
0.00132278
0.00132217
0.00132153
0.00132086
0.00132018
0.00131949
0.0013188
0.00131811
0.00131743
0.00131676
0.00131612
0.00131549
0.00131488
0.00131431
0.00131376
0.00131324
0.00131276
0.00132618
0.00132626
0.00132625
0.00132612
0.00132589
0.00132556
0.00132514
0.00132464
0.00132409
0.00132348
0.00132284
0.00132218
0.00132151
0.00132082
0.00132014
0.00131947
0.00131881
0.00131816
0.00131753
0.00131693
0.00131635
0.0013158
0.00131527
0.00131479
0.00131433
0.00132735
0.00132745
0.00132746
0.00132735
0.00132713
0.0013268
0.00132638
0.00132588
0.00132533
0.00132472
0.00132408
0.00132342
0.00132275
0.00132208
0.0013214
0.00132074
0.00132009
0.00131946
0.00131885
0.00131826
0.00131771
0.00131718
0.00131668
0.00131622
0.00131579
0.00132847
0.00132859
0.00132864
0.00132854
0.00132832
0.00132799
0.00132756
0.00132706
0.0013265
0.00132589
0.00132524
0.00132458
0.00132391
0.00132324
0.00132257
0.00132192
0.00132128
0.00132066
0.00132007
0.0013195
0.00131896
0.00131845
0.00131797
0.00131753
0.00131713
0.00132953
0.0013297
0.00132977
0.00132969
0.00132947
0.00132913
0.00132869
0.00132818
0.0013276
0.00132698
0.00132632
0.00132566
0.00132498
0.00132431
0.00132365
0.001323
0.00132237
0.00132176
0.00132118
0.00132062
0.0013201
0.0013196
0.00131915
0.00131873
0.00131835
0.00133057
0.00133078
0.00133089
0.00133081
0.00133058
0.00133023
0.00132977
0.00132923
0.00132863
0.00132799
0.00132732
0.00132664
0.00132596
0.00132529
0.00132462
0.00132398
0.00132335
0.00132275
0.00132218
0.00132164
0.00132112
0.00132065
0.00132021
0.0013198
0.00131944
0.00133159
0.00133186
0.00133199
0.00133192
0.00133167
0.00133128
0.00133079
0.00133022
0.00132959
0.00132892
0.00132823
0.00132754
0.00132684
0.00132616
0.0013255
0.00132485
0.00132423
0.00132364
0.00132307
0.00132254
0.00132204
0.00132158
0.00132115
0.00132076
0.00132042
0.00133263
0.00133296
0.00133313
0.00133303
0.00133274
0.0013323
0.00133176
0.00133113
0.00133046
0.00132976
0.00132905
0.00132833
0.00132763
0.00132694
0.00132627
0.00132562
0.001325
0.00132441
0.00132385
0.00132333
0.00132284
0.00132239
0.00132198
0.0013216
0.00132127
0.00133374
0.00133414
0.00133433
0.00133418
0.00133381
0.00133329
0.00133266
0.00133198
0.00133125
0.00133051
0.00132976
0.00132903
0.0013283
0.0013276
0.00132693
0.00132628
0.00132566
0.00132508
0.00132452
0.00132401
0.00132353
0.00132308
0.00132268
0.00132232
0.001322
0.00133506
0.00133549
0.00133564
0.00133538
0.00133488
0.00133423
0.0013335
0.00133273
0.00133195
0.00133115
0.00133037
0.00132961
0.00132887
0.00132816
0.00132748
0.00132683
0.00132621
0.00132563
0.00132508
0.00132457
0.0013241
0.00132366
0.00132327
0.00132292
0.00132261
0.00133676
0.00133714
0.00133715
0.00133667
0.00133594
0.00133512
0.00133426
0.00133338
0.00133252
0.00133168
0.00133086
0.00133007
0.00132932
0.0013286
0.00132791
0.00132726
0.00132664
0.00132606
0.00132552
0.00132502
0.00132455
0.00132412
0.00132374
0.0013234
0.0013231
0.00133922
0.00133928
0.00133892
0.00133804
0.00133699
0.00133592
0.00133489
0.0013339
0.00133296
0.00133207
0.00133122
0.00133041
0.00132964
0.00132892
0.00132823
0.00132758
0.00132696
0.00132639
0.00132585
0.00132535
0.00132489
0.00132447
0.00132409
0.00132375
0.00132346
0.00134336
0.00134233
0.001341
0.00133943
0.00133791
0.00133655
0.00133534
0.00133424
0.00133323
0.0013323
0.00133143
0.00133061
0.00132984
0.00132911
0.00132842
0.00132777
0.00132717
0.00132659
0.00132606
0.00132557
0.00132511
0.0013247
0.00132432
0.00132399
0.0013237
0.00135239
0.00134723
0.00134334
0.00134063
0.00133855
0.00133688
0.0013355
0.00133433
0.00133329
0.00133234
0.00133147
0.00133066
0.00132989
0.00132917
0.00132849
0.00132785
0.00132725
0.00132669
0.00132616
0.00132567
0.00132522
0.00132481
0.00132444
0.00132411
0.00132383
0.00136998
0.00135379
0.00134545
0.0013414
0.00133879
0.00133689
0.00133543
0.00133423
0.0013332
0.00133227
0.00133141
0.00133061
0.00132986
0.00132915
0.00132848
0.00132785
0.00132725
0.0013267
0.00132618
0.00132569
0.00132525
0.00132484
0.00132447
0.00132415
0.00132387
-0.194626
-0.190175
-0.182067
-0.170385
-0.156381
-0.141283
-0.125793
-0.110186
-0.0947729
-0.0800927
-0.0665522
-0.0543894
-0.0438379
-0.0350491
-0.0280443
-0.0226263
-0.0184874
-0.0153446
-0.0129708
-0.0111867
-0.00985769
-0.00888489
-0.00820158
-0.00774422
-0.00748494
-0.172451
-0.165556
-0.153066
-0.135874
-0.11677
-0.097805
-0.0803993
-0.065308
-0.0528326
-0.0427944
-0.034782
-0.0283464
-0.0231114
-0.0189072
-0.0156118
-0.0130963
-0.0111987
-0.00976933
-0.00872769
-0.00794816
-0.00736454
-0.00693463
-0.00663089
-0.00642791
-0.00630872
-0.125412
-0.118123
-0.105464
-0.0896355
-0.0739855
-0.0596938
-0.0470149
-0.0362612
-0.0277699
-0.0214847
-0.0169944
-0.0138308
-0.0115321
-0.00981888
-0.00853253
-0.00756335
-0.00684665
-0.00632182
-0.00593866
-0.0056647
-0.00546852
-0.0053283
-0.00523312
-0.0051748
-0.00513919
-0.0896118
-0.0805378
-0.0682123
-0.0551795
-0.0436182
-0.0338602
-0.025783
-0.0192924
-0.0143571
-0.010838
-0.00851394
-0.0070619
-0.00614623
-0.00554789
-0.00514414
-0.00486386
-0.00466299
-0.004517
-0.00440887
-0.00432555
-0.00426573
-0.00422553
-0.00420352
-0.004199
-0.00419714
-0.0583747
-0.0502519
-0.0400552
-0.0304811
-0.0228501
-0.0169919
-0.0126267
-0.00945753
-0.00724009
-0.00581008
-0.00491445
-0.0043673
-0.00404271
-0.00385018
-0.00373196
-0.00365052
-0.0035879
-0.00353695
-0.00349578
-0.00346602
-0.00344543
-0.003435
-0.00343599
-0.00344946
-0.00346165
-0.0352773
-0.0288754
-0.0212932
-0.0147992
-0.0101258
-0.0069888
-0.00504619
-0.00391984
-0.00334734
-0.00306576
-0.00292716
-0.00286582
-0.00284605
-0.00284547
-0.00285158
-0.00285678
-0.00285783
-0.00285477
-0.00284931
-0.00284402
-0.00284146
-0.0028435
-0.00285245
-0.00287041
-0.00288752
-0.0200077
-0.0152314
-0.00970842
-0.0052916
-0.00254646
-0.00111956
-0.000606092
-0.000646277
-0.00096116
-0.00130144
-0.00160747
-0.00184516
-0.00201624
-0.00213599
-0.0022182
-0.00227383
-0.00231082
-0.00233499
-0.00235092
-0.00236234
-0.00237221
-0.00238253
-0.00239582
-0.00241423
-0.00243207
-0.00962699
-0.00635743
-0.0025875
0.000264795
0.00174883
0.00215934
0.00185529
0.00120166
0.000465661
-0.000185853