/*--------------------------------*- C++ -*----------------------------------*\
  =========                 |
  \\      /  F ield         | OpenFOAM: The Open Source CFD Toolbox
   \\    /   O peration     | Website:  https://openfoam.org
    \\  /    A nd           | Version:  13
     \\/     M anipulation  |
\*---------------------------------------------------------------------------*/
FoamFile
{
    format      ascii;
    class       surfaceScalarField;
    location    "9";
    object      phi;
}
// * * * * * * * * * * * * * * * * * * * * * * * * * * * * * * * * * * * * * //

dimensions      [0 3 -1 0 0 0 0];

internalField   nonuniform List<scalar> 
12590
(
-3.85789e-08
3.56245e-08
-4.75713e-08
8.73586e-09
1.314e-08
-6.33428e-08
1.31818e-07
-1.18747e-07
2.70623e-07
-1.40152e-07
4.06709e-07
-1.35875e-07
5.22089e-07
-1.16276e-07
6.13462e-07
-9.09235e-08
6.77713e-07
-6.49418e-08
7.17896e-07
-3.96341e-08
7.33165e-07
-1.57979e-08
7.2665e-07
6.79105e-09
6.97666e-07
2.87493e-08
6.45805e-07
5.11516e-08
5.72408e-07
7.34333e-08
4.75859e-07
9.45452e-08
3.62371e-07
1.1359e-07
2.34004e-07
1.26093e-07
1.07862e-07
1.26663e-07
-2.8927e-09
1.0916e-07
-7.5319e-08
7.32387e-08
-1.13333e-07
3.68451e-08
-1.08493e-07
-3.71907e-09
-6.62617e-08
-4.28274e-08
-6.6282e-08
-1.13509e-08
4.65506e-08
5.65999e-08
-5.94997e-08
1.87785e-07
-1.94986e-07
3.33695e-07
-2.64638e-07
4.69371e-07
-2.76054e-07
5.86473e-07
-2.52822e-07
6.83091e-07
-2.12983e-07
7.59692e-07
-1.67243e-07
8.1565e-07
-1.20919e-07
8.52176e-07
-7.59064e-08
8.68912e-07
-3.25499e-08
8.65854e-07
9.85384e-09
8.43672e-07
5.08066e-08
8.0436e-07
8.99354e-08
7.50032e-07
1.27439e-07
6.80544e-07
1.63079e-07
5.97906e-07
1.95752e-07
4.99994e-07
2.23141e-07
3.8566e-07
2.40575e-07
2.54855e-07
2.39443e-07
1.17992e-07
2.09978e-07
5.5331e-09
1.49466e-07
-5.46659e-08
5.395e-08
-4.80423e-08
-4.8615e-08
-1.14675e-07
3.35777e-08
1.4158e-08
1.74314e-07
-1.99475e-07
3.35924e-07
-3.56353e-07
4.7942e-07
-4.07642e-07
5.961e-07
-3.92404e-07
6.8974e-07
-3.45901e-07
7.64241e-07
-2.871e-07
8.219e-07
-2.24333e-07
8.6222e-07
-1.60916e-07
8.84824e-07
-9.80922e-08
8.88938e-07
-3.65152e-08
8.75274e-07
2.34945e-08
8.45399e-07
8.04904e-08
8.00627e-07
1.34139e-07
7.442e-07
1.83407e-07
6.78822e-07
2.27641e-07
6.0804e-07
2.6609e-07
5.32866e-07
2.97596e-07
4.53348e-07
3.19792e-07
3.65135e-07
3.27403e-07
2.63318e-07
3.11782e-07
1.5021e-07
2.61924e-07
3.9774e-08
1.66463e-07
-2.64107e-08
1.50268e-08
-1.40077e-07
9.25034e-08
-7.64078e-08
2.75794e-07
-3.81864e-07
4.38731e-07
-5.18472e-07
5.64492e-07
-5.32439e-07
6.63005e-07
-4.90038e-07
7.43963e-07
-4.25865e-07
8.10582e-07
-3.52953e-07
8.62556e-07
-2.75432e-07
8.97177e-07
-1.94934e-07
9.1244e-07
-1.12861e-07
9.0697e-07
-3.08874e-08
8.8116e-07
4.91773e-08
8.36962e-07
1.24274e-07
7.77011e-07
1.93319e-07
7.05654e-07
2.54106e-07
6.2725e-07
3.05151e-07
5.47483e-07
3.45413e-07
4.70048e-07
3.74551e-07
3.97286e-07
3.92555e-07
3.27e-07
3.97916e-07
2.5332e-07
3.85871e-07
1.7092e-07
3.46257e-07
7.39944e-08
2.60332e-07
-5.56697e-09
9.88191e-08
-1.44871e-07
1.58459e-07
-2.33203e-07
3.47205e-07
-5.69239e-07
4.8964e-07
-6.59657e-07
5.99028e-07
-6.40373e-07
6.9147e-07
-5.81232e-07
7.73292e-07
-5.06338e-07
8.43013e-07
-4.21608e-07
8.9694e-07
-3.28284e-07
9.30356e-07
-2.27753e-07
9.40088e-07
-1.22201e-07
9.24143e-07
-1.50359e-08
8.83434e-07
8.9363e-08
8.21256e-07
1.85671e-07
7.42158e-07
2.7131e-07
6.51777e-07
3.43534e-07
5.55683e-07
4.0028e-07
4.60606e-07
4.40043e-07
3.72014e-07
4.62902e-07
2.93998e-07
4.70801e-07
2.26712e-07
4.65641e-07
1.66697e-07
4.46943e-07
1.05736e-07
4.05994e-07
4.58704e-08
3.25252e-07
-2.44297e-09
1.47208e-07
-1.446e-07
2.03103e-07
-4.34363e-07
3.69922e-07
-7.34501e-07
4.93661e-07
-7.81816e-07
5.98808e-07
-7.43851e-07
6.96441e-07
-6.7726e-07
7.86328e-07
-5.94747e-07
8.62994e-07
-4.97075e-07
9.20344e-07
-3.847e-07
9.52823e-07
-2.5976e-07
9.56357e-07
-1.2581e-07
9.28074e-07
1.26719e-08
8.69157e-07
1.47221e-07
7.84725e-07
2.68931e-07
6.82482e-07
3.72133e-07
5.70564e-07
4.54308e-07
4.56113e-07
5.13714e-07
3.46577e-07
5.49215e-07
2.48143e-07
5.61183e-07
1.65806e-07
5.53428e-07
1.00853e-07
5.31371e-07
5.12733e-08
4.97082e-07
1.51565e-08
4.45403e-07
-1.31723e-08
3.50517e-07
1.89974e-09
1.39495e-07
-1.40339e-07
2.05143e-07
-6.37757e-07
3.50666e-07
-8.78365e-07
4.6484e-07
-8.94299e-07
5.71778e-07
-8.48873e-07
6.76244e-07
-7.80152e-07
7.73872e-07
-6.90739e-07
8.55775e-07
-5.77967e-07
9.13893e-07
-4.41882e-07
9.41047e-07
-2.86662e-07
9.34283e-07
-1.19537e-07
8.89277e-07
5.67878e-08
8.10138e-07
2.25058e-07
7.03055e-07
3.74634e-07
5.77638e-07
4.96052e-07
4.45592e-07
5.85206e-07
3.1626e-07
6.42149e-07
1.97897e-07
6.67347e-07
9.65284e-08
6.62485e-07
1.76885e-08
6.32901e-07
-3.97979e-08
5.89282e-07
-7.64707e-08
5.3503e-07
-9.58799e-08
4.63533e-07
-7.69749e-08
3.37603e-07
-2.25523e-09
6.82106e-08
-1.39404e-07
1.80748e-07
-8.16862e-07
3.04123e-07
-9.99951e-07
4.06373e-07
-9.94922e-07
5.09382e-07
-9.49996e-07
6.13743e-07
-8.8285e-07
7.13036e-07
-7.8832e-07
7.96222e-07
-6.59919e-07
8.50578e-07
-4.94879e-07
8.64049e-07
-3.00225e-07
8.36436e-07
-9.13876e-08
7.69608e-07
1.22094e-07
6.71925e-07
3.21657e-07
5.4711e-07
4.97827e-07
4.06013e-07
6.35755e-07
2.61742e-07
7.28308e-07
1.26617e-07
7.76492e-07
1.13895e-08
7.82553e-07
-8.1338e-08
7.55348e-07
-1.50701e-07
7.02946e-07
-1.94861e-07
6.34282e-07
-2.12696e-07
5.5394e-07
-1.96619e-07
4.50367e-07
-1.20238e-07
2.61047e-07
-1.72836e-09
-4.13059e-08
-1.38597e-07
1.40428e-07
-9.55774e-07
2.30809e-07
-1.08906e-06
3.0917e-07
-1.07163e-06
3.92534e-07
-1.03162e-06
4.80903e-07
-9.69087e-07
5.68527e-07
-8.73898e-07
6.4309e-07
-7.32501e-07
6.85781e-07
-5.36275e-07
6.80927e-07
-2.9337e-07
6.25143e-07
-3.64818e-08
5.46003e-07
2.00884e-07
4.34163e-07
4.30949e-07
3.0015e-07
6.30082e-07
1.5563e-07
7.7818e-07
1.59775e-08
8.66903e-07
-1.07868e-07
8.99448e-07
-2.14372e-07
8.89122e-07
-2.90913e-07
8.32054e-07
-3.37056e-07
7.49726e-07
-3.5277e-07
6.5076e-07
-3.31393e-07
5.34088e-07
-2.45474e-07
3.64741e-07
-7.19221e-08
9.46106e-08
2.39584e-08
-1.30942e-07
-1.11352e-07
8.71877e-08
-1.04217e-06
1.24817e-07
-1.12524e-06
1.60105e-07
-1.10567e-06
2.02894e-07
-1.07243e-06
2.52521e-07
-1.01614e-06
3.02766e-07
-9.21906e-07
3.39463e-07
-7.66091e-07
3.38006e-07
-5.33195e-07
2.59918e-07
-2.13225e-07
1.11637e-07
1.11654e-07
-8.53457e-09
3.18103e-07
-7.43414e-08
4.92502e-07
-1.37268e-07
6.90246e-07
-2.1901e-07
8.57761e-07
-3.13363e-07
9.6035e-07
-4.01378e-07
9.86843e-07
-4.71852e-07
9.59643e-07
-5.14563e-07
8.74961e-07
-5.27033e-07
7.6268e-07
-5.01559e-07
6.2629e-07
-4.04457e-07
4.38137e-07
-1.9451e-07
1.58448e-07
2.33954e-08
-1.19532e-07
6.85304e-08
-1.66306e-07
-3.994e-08
1.45615e-08
-1.05617e-06
-1.58545e-08
-1.09406e-06
-4.21082e-08
-1.07854e-06
-5.96615e-08
-1.05259e-06
-7.1569e-08
-1.00233e-06
-8.44827e-08
-9.05385e-07
-1.14065e-07
-7.35251e-07
-1.71417e-07
-4.72513e-07
-2.62783e-07
-1.20932e-07
-3.15935e-07
1.636e-07
-3.67156e-07
3.66677e-07
-4.37228e-07
5.60092e-07
-5.10393e-07
7.6176e-07
-5.81368e-07
9.27541e-07
-6.44979e-07
1.02358e-06
-6.89826e-07
1.03141e-06
-7.17723e-07
9.87777e-07
-7.27885e-07
8.85425e-07
-7.01172e-07
7.3676e-07
-5.99391e-07
5.25585e-07
-3.67833e-07
2.0884e-07
-9.31751e-08
-1.12469e-07
3.24009e-08
-2.36747e-07
2.46719e-08
-1.53119e-07
-9.96753e-09
-7.87361e-08
-9.77565e-07
-1.81649e-07
-9.90445e-07
-2.83473e-07
-9.76062e-07
-3.75475e-07
-9.58818e-07
-4.55418e-07
-9.20759e-07
-5.22964e-07
-8.35738e-07
-5.79457e-07
-6.77254e-07
-6.23346e-07
-4.27249e-07
-6.42715e-07
-1.01376e-07
-6.87856e-07
2.08243e-07
-7.63413e-07
4.40995e-07
-8.34577e-07
6.2996e-07
-8.82662e-07
8.09168e-07
-9.15167e-07
9.59657e-07
-9.37772e-07
1.04628e-06
-9.48714e-07
1.04255e-06
-9.47483e-07
9.87071e-07
-9.17604e-07
8.563e-07
-8.2592e-07
6.46283e-07
-6.12685e-07
3.14104e-07
-3.25567e-07
-7.4931e-08
-1.71959e-07
-2.61207e-07
-1.20117e-07
-2.86238e-07
-5.32419e-08
-2.10737e-07
-5.96786e-08
-1.72741e-07
-8.04997e-07
-3.58087e-07
-8.04817e-07
-5.41327e-07
-7.92134e-07
-7.10413e-07
-7.88387e-07
-8.59446e-07
-7.70191e-07
-9.84663e-07
-7.08941e-07
-1.08466e-06
-5.76255e-07
-1.15401e-06
-3.57033e-07
-1.18565e-06
-6.91102e-08
-1.20107e-06
2.23386e-07
-1.21635e-06
4.55809e-07
-1.23143e-06
6.44709e-07
-1.23199e-06
8.09684e-07
-1.21842e-06
9.46279e-07
-1.19775e-06
1.02613e-06
-1.17599e-06
1.02145e-06
-1.13591e-06
9.47905e-07
-1.04846e-06
7.7022e-07
-8.59651e-07
4.59139e-07
-5.63517e-07
2.08364e-08
-3.56972e-07
-2.77932e-07
-2.93277e-07
-3.21788e-07
-2.18002e-07
-3.56491e-07
-9.26658e-08
-3.32484e-07
-1.49294e-07
-2.56833e-07
-5.4883e-07
-5.29472e-07
-5.31824e-07
-7.90677e-07
-5.30469e-07
-1.02724e-06
-5.50583e-07
-1.23185e-06
-5.64682e-07
-1.39853e-06
-5.41005e-07
-1.52259e-06
-4.51434e-07
-1.59778e-06
-2.80936e-07
-1.62473e-06
-4.20524e-08
-1.61957e-06
2.18555e-07
-1.5992e-06
4.35452e-07
-1.56545e-06
6.11081e-07
-1.52004e-06
7.6469e-07
-1.46641e-06
8.93235e-07
-1.40714e-06
9.67844e-07
-1.34273e-06
9.58197e-07
-1.23961e-06
8.46535e-07
-1.05263e-06
5.85056e-07
-7.37636e-07
1.47114e-07
-4.41202e-07
-2.72256e-07
-3.39745e-07
-3.75603e-07
-2.9223e-07
-3.65705e-07
-2.24601e-07
-4.22227e-07
-1.16982e-07
-4.35826e-07
-2.63934e-07
-3.27957e-07
-2.21637e-07
-6.79877e-07
-1.80356e-07
-1.0044e-06
-2.05755e-07
-1.28927e-06
-2.65466e-07
-1.52618e-06
-3.27053e-07
-1.71293e-06
-3.53856e-07
-1.84448e-06
-3.1926e-07
-1.91491e-06
-2.10328e-07
-1.92261e-06
-3.37681e-08
-1.89387e-06
1.89892e-07
-1.8531e-06
3.95085e-07
-1.79509e-06
5.53572e-07
-1.71753e-06
6.87917e-07
-1.62541e-06
8.0236e-07
-1.51933e-06
8.63336e-07
-1.38434e-06
8.25615e-07
-1.17462e-06
6.39077e-07
-8.36018e-07
2.50049e-07
-4.66443e-07
-2.18336e-07
-3.19125e-07
-4.15246e-07
-2.92124e-07
-3.99821e-07
-2.42679e-07
-4.12231e-07
-1.85966e-07
-4.76243e-07
-1.05784e-07
-5.12045e-07
-3.69058e-07
-4.09789e-07
1.87082e-07
-8.09394e-07
2.18788e-07
-1.16033e-06
1.44869e-07
-1.46061e-06
3.47534e-08
-1.70376e-06
-8.35456e-08
-1.88591e-06
-1.72204e-07
-2.00658e-06
-1.98185e-07
-2.07143e-06
-1.46368e-07
-2.08561e-06
-1.88282e-08
-2.05044e-06
1.53749e-07
-1.98156e-06
3.27736e-07
-1.90031e-06
4.7207e-07
-1.79711e-06
5.87075e-07
-1.66199e-06
6.68608e-07
-1.48297e-06
6.87521e-07
-1.23717e-06
5.83426e-07
-8.8847e-07
2.94382e-07
-5.09133e-07
-1.21769e-07
-3.3252e-07
-3.90482e-07
-3.08904e-07
-4.33689e-07
-2.49586e-07
-4.56977e-07
-1.74302e-07
-4.84465e-07
-1.18263e-07
-5.30171e-07
-6.44319e-08
-5.65147e-07
-4.35536e-07
-4.69294e-07
6.56666e-07
-8.7428e-07
6.24225e-07
-1.22427e-06
4.95093e-07
-1.51053e-06
3.22995e-07
-1.73059e-06
1.34332e-07
-1.88275e-06
-1.80598e-08
-1.98956e-06
-9.53509e-08
-2.05136e-06
-8.20736e-08
-2.06788e-06
-6.77101e-09
-2.02254e-06
1.1206e-07
-1.93677e-06
2.38691e-07
-1.82503e-06
3.64981e-07
-1.69214e-06
4.53563e-07
-1.50581e-06
4.86624e-07
-1.24753e-06
4.34871e-07
-9.20032e-07
2.59577e-07
-5.93927e-07
-1.67295e-08
-4.25831e-07
-2.87884e-07
-3.79802e-07
-4.22647e-07
-3.07269e-07
-5.08154e-07
-2.06701e-07
-5.48707e-07
-1.16373e-07
-5.78118e-07
-5.4135e-08
-5.89337e-07
-1.78048e-08
-6.08097e-07
-4.511e-07
-4.35198e-07
1.09279e-06
-7.9496e-07
9.84717e-07
-1.08965e-06
7.92146e-07
-1.30666e-06
5.3824e-07
-1.44884e-06
2.79224e-07
-1.55853e-06
8.67552e-08
-1.65384e-06
3.03252e-09
-1.73136e-06
-1.02584e-08
-1.75418e-06
2.01807e-08
-1.72691e-06
8.02833e-08
-1.65185e-06
1.69504e-07
-1.54584e-06
2.55238e-07
-1.39706e-06
3.10913e-07
-1.20525e-06
2.99945e-07
-9.7451e-07
2.09298e-07
-7.43451e-07
4.75576e-08
-5.9335e-07
-1.64508e-07
-4.9535e-07
-3.64099e-07
-3.97161e-07
-5.2431e-07
-2.74126e-07
-6.16252e-07
-1.64402e-07
-6.65204e-07
-6.26935e-08
-6.69833e-07
-8.04074e-09
-6.53389e-07
2.62006e-08
-6.33883e-07
-4.30721e-07
-3.49335e-07
1.44181e-06
-6.62992e-07
1.29849e-06
-9.18353e-07
1.04628e-06
-1.09804e-06
7.18625e-07
-1.21586e-06
3.94416e-07
-1.30722e-06
1.78507e-07
-1.39466e-06
8.70041e-08
-1.45604e-06
5.253e-08
-1.47345e-06
3.50737e-08
-1.44352e-06
5.32183e-08
-1.3909e-06
1.13385e-07
-1.31788e-06
1.88197e-07
-1.22114e-06
2.15913e-07
-1.08744e-06
1.73312e-07
-9.28567e-07
6.42038e-08
-7.74874e-07
-9.97393e-08
-6.24386e-07
-2.96495e-07
-4.88734e-07
-4.99132e-07
-3.44739e-07
-6.54076e-07
-2.15226e-07
-7.49088e-07
-9.06479e-08
-7.78568e-07
-5.05296e-09
-7.61781e-07
4.88202e-08
-6.95014e-07
3.76941e-08
-6.34826e-07
-4.00859e-07
-2.53955e-07
1.69334e-06
-5.21189e-07
1.56362e-06
-7.49511e-07
1.27357e-06
-9.25662e-07
8.92835e-07
-1.0526e-06
5.18058e-07
-1.15198e-06
2.75249e-07
-1.23157e-06
1.64627e-07
-1.27591e-06
9.45961e-08
-1.27337e-06
3.16013e-08
-1.23847e-06
1.68052e-08
-1.20254e-06
8.05061e-08
-1.17829e-06
1.62549e-07
-1.12998e-06
1.73115e-07
-1.03476e-06
8.56013e-08
-9.01083e-07
-6.19777e-08
-7.45486e-07
-2.44344e-07
-5.85344e-07
-4.51818e-07
-4.21133e-07
-6.54414e-07
-2.615e-07
-8.11664e-07
-1.0562e-07
-8.9824e-07
2.91618e-08
-9.13862e-07
1.35511e-07
-8.60305e-07
1.90766e-07
-7.57261e-07
1.55335e-07
-6.09226e-07
-2.50927e-07
-1.32592e-07
1.82397e-06
-3.26787e-07
1.75638e-06
-5.15361e-07
1.45982e-06
-6.953e-07
1.06824e-06
-8.40464e-07
6.61923e-07
-9.43846e-07
3.74509e-07
-1.01032e-06
2.27935e-07
-1.04656e-06
1.28286e-07
-1.04311e-06
2.62746e-08
-1.00563e-06
-2.06967e-08
-9.77153e-07
4.95574e-08
-9.73129e-07
1.62158e-07
-9.62222e-07
1.65811e-07
-9.16054e-07
4.48789e-08
-8.48318e-07
-1.237e-07
-7.67384e-07
-3.19897e-07
-6.68633e-07
-5.45336e-07
-5.47013e-07
-7.72124e-07
-4.08819e-07
-9.45937e-07
-2.65723e-07
-1.03867e-06
-1.22126e-07
-1.05376e-06
2.72754e-08
-1.00988e-06
1.88999e-07
-9.21366e-07
3.86506e-07
-8.1039e-07
-6.14798e-07
7.42876e-07
-4.74318e-08
1.86944e-06
-1.64824e-07
1.87158e-06
-3.12128e-07
1.60457e-06
-4.78852e-07
1.23602e-06
-6.38502e-07
8.16129e-07
-7.43399e-07
4.78602e-07
-7.8817e-07
2.71198e-07
-8.12133e-07
1.50748e-07
-8.30414e-07
4.31503e-08
-8.04958e-07
-4.79244e-08
-7.64625e-07
1.19336e-08
-7.59031e-07
1.56893e-07
-7.61872e-07
1.72461e-07
-7.36343e-07
2.41042e-08
-7.08361e-07
-1.46638e-07
-6.70481e-07
-3.52804e-07
-6.01567e-07
-6.10213e-07
-4.86275e-07
-8.83685e-07
-3.38516e-07
-1.09041e-06
-1.78152e-07
-1.19588e-06
-1.4422e-08
-1.21574e-06
1.52417e-07
-1.17611e-06
3.26868e-07
-1.09686e-06
5.08477e-07
-9.97793e-07
-8.71337e-07
7.65328e-07
2.80096e-08
1.84049e-06
-3.67127e-09
1.90287e-06
-9.2652e-08
1.69458e-06
-2.30526e-07
1.36979e-06
-3.93603e-07
9.82939e-07
-5.26197e-07
6.11834e-07
-5.82265e-07
3.29777e-07
-5.89815e-07
1.60906e-07
-6.14141e-07
6.88912e-08
-6.02302e-07
-5.79971e-08
-5.44415e-07
-4.72518e-08
-4.92307e-07
1.09795e-07
-4.68965e-07
1.54059e-07
-4.39382e-07
7.97503e-10
-4.54566e-07
-1.26135e-07
-4.77567e-07
-3.25923e-07
-4.59717e-07
-6.24665e-07
-3.66802e-07
-9.73591e-07
-2.22517e-07
-1.23173e-06
-5.87599e-08
-1.35726e-06
1.10777e-07
-1.38337e-06
2.81837e-07
-1.34674e-06
4.54462e-07
-1.27181e-06
6.34367e-07
-1.17673e-06
-1.07544e-06
8.38135e-07
1.02845e-07
1.73814e-06
1.40646e-07
1.86551e-06
1.23287e-07
1.71131e-06
5.70364e-08
1.44092e-06
-6.96811e-08
1.11086e-06
-2.22806e-07
7.70911e-07
-3.45078e-07
4.60462e-07
-3.88575e-07
2.13796e-07
-3.75296e-07
6.32318e-08
-3.61382e-07
-6.84257e-08
-3.09658e-07
-9.04565e-08
-1.72635e-07
-2.34165e-08
-2.50161e-09
-8.16479e-09
2.17221e-08
-1.56529e-08
-6.81821e-08
-3.0925e-08
-1.81003e-07
-2.08457e-07
-2.44607e-07
-5.58045e-07
-1.95536e-07
-1.02014e-06
-6.95341e-08
-1.35532e-06
8.54935e-08
-1.51016e-06
2.50092e-07
-1.5468e-06
4.16916e-07
-1.51327e-06
5.8491e-07
-1.43896e-06
7.52282e-07
-1.34556e-06
-1.24582e-06
9.24112e-07
1.67669e-07
1.57117e-06
2.67894e-07
1.76638e-06
3.14103e-07
1.66835e-06
3.14921e-07
1.44154e-06
2.70959e-07
1.16044e-06
1.87274e-07
8.61476e-07
8.64611e-08
5.69789e-07
-2.68393e-09
3.13584e-07
-4.09097e-08
1.12793e-07
-6.26385e-08
-3.54777e-08
-3.30801e-08
-1.17432e-07
6.62302e-08
-1.11207e-07
1.70055e-07
-1.06227e-07
2.51904e-07
-9.21083e-08
2.86435e-07
-5.89746e-08
1.91215e-07
-1.08974e-07
3.45313e-08
-3.98711e-07
1.95901e-08
-1.00308e-06
1.09321e-07
-1.44324e-06
2.44578e-07
-1.64408e-06
3.98085e-07
-1.69926e-06
5.57672e-07
-1.67221e-06
7.17606e-07
-1.59956e-06
8.76936e-07
-1.50341e-06
-1.40044e-06
1.03205e-06
2.22717e-07
1.35098e-06
3.75757e-07
1.61555e-06
4.68996e-07
1.57701e-06
5.18359e-07
1.39649e-06
5.3028e-07
1.15464e-06
5.08424e-07
8.90051e-07
4.58316e-07
6.28014e-07
3.93955e-07
3.86342e-07
3.3312e-07
1.81653e-07
2.77072e-07
2.58859e-08
2.52901e-07
-8.29363e-08
2.78731e-07
-1.35482e-07
3.37178e-07
-1.59149e-07
4.22549e-07
-1.72728e-07
4.77868e-07
-1.11084e-07
4.50535e-07
-7.79352e-08
3.02311e-07
-2.48406e-07
2.47632e-07
-9.47031e-07
3.01624e-07
-1.49607e-06
4.15133e-07
-1.75658e-06
5.53835e-07
-1.83735e-06
7.02058e-07
-1.82014e-06
8.53126e-07
-1.74961e-06
1.00232e-06
-1.65265e-06
-1.54458e-06
1.14769e-06
2.67552e-07
1.08525e-06
4.56873e-07
1.42801e-06
5.86476e-07
1.45009e-06
6.7031e-07
1.31738e-06
7.1613e-07
1.11311e-06
7.29435e-07
8.83792e-07
7.12745e-07
6.5196e-07
6.72971e-07
4.33051e-07
6.20455e-07
2.40452e-07
5.71244e-07
8.23054e-08
5.30329e-07
-4.24089e-08
5.19509e-07
-1.1769e-07
5.31056e-07
-1.68249e-07
5.63415e-07
-2.02986e-07
6.12227e-07
-1.57087e-07
6.14303e-07
-7.80959e-08
5.21771e-07
-1.54701e-07
4.68667e-07
-8.92956e-07
5.02844e-07
-1.5294e-06
5.96297e-07
-1.84941e-06
7.18205e-07
-1.95874e-06
8.52476e-07
-1.95394e-06
9.90787e-07
-1.88785e-06
1.12958e-06
-1.79032e-06
-1.67963e-06
1.2655e-06
2.96241e-07
7.91586e-07
5.08912e-07
1.21726e-06
6.64043e-07
1.29757e-06
7.72224e-07
1.21105e-06
8.44044e-07
1.04722e-06
8.80925e-07
8.52048e-07
8.87708e-07
6.50341e-07
8.6951e-07
4.56229e-07
8.32468e-07
2.81436e-07
7.86477e-07
1.29396e-07
7.47072e-07
3.37262e-09
7.19745e-07
-9.11544e-08
7.16989e-07
-1.6334e-07
7.24285e-07
-2.08507e-07
7.48301e-07
-1.80114e-07
7.50245e-07
-7.89093e-08
7.07477e-07
-1.11019e-07
6.82165e-07
-8.67018e-07
7.10475e-07
-1.55716e-06
7.87079e-07
-1.92552e-06
8.91017e-07
-2.06236e-06
1.00865e-06
-2.07131e-06
1.13227e-06
-2.01084e-06
1.2576e-06
-1.91497e-06
-1.8036e-06
1.38253e-06
2.92603e-07
5.00375e-07
5.26076e-07
9.84669e-07
6.99209e-07
1.12526e-06
8.28132e-07
1.08617e-06
9.18424e-07
9.58567e-07
9.77417e-07
7.9654e-07
1.00362e-06
6.27447e-07
1.0004e-06
4.62085e-07
9.77331e-07
3.06199e-07
9.42537e-07
1.66876e-07
9.00682e-07
4.27707e-08
8.70309e-07
-5.80791e-08
8.62513e-07
-1.55215e-07
8.59182e-07
-2.0472e-07
8.67145e-07
-1.87511e-07
8.68984e-07
-8.04508e-08
8.7208e-07
-1.13846e-07
8.86362e-07
-8.80912e-07
9.20107e-07
-1.59048e-06
9.83496e-07
-1.98857e-06
1.06974e-06
-2.14831e-06
1.16941e-06
-2.17073e-06
1.27603e-06
-2.11697e-06
1.38602e-06
-2.02441e-06
-1.91435e-06
1.49786e-06
2.46181e-07
2.54073e-07
4.98992e-07
7.32266e-07
6.92765e-07
9.32967e-07
8.37396e-07
9.4071e-07
9.44108e-07
8.54411e-07
1.01547e-06
7.26318e-07
1.05791e-06
5.86067e-07
1.07154e-06
4.48889e-07
1.0612e-06
3.16699e-07
1.03593e-06
1.90363e-07
1.00374e-06
7.6339e-08
9.70869e-07
-2.73463e-08
9.59792e-07
-1.44249e-07
9.5505e-07
-2.00088e-07
9.56843e-07
-1.89547e-07
9.57386e-07
-8.1153e-08
1.01835e-06
-1.74723e-07
1.07879e-06
-9.41125e-07
1.12538e-06
-1.63677e-06
1.17985e-06
-2.04275e-06
1.24996e-06
-2.21822e-06
1.33102e-06
-2.25151e-06
1.41928e-06
-2.20508e-06
1.51293e-06
-2.11699e-06
-2.01094e-06
1.61012e-06
1.6984e-07
8.31943e-08
4.27133e-07
4.74544e-07
6.43989e-07
7.14956e-07
8.11261e-07
7.74764e-07
9.31534e-07
7.3291e-07
1.01185e-06
6.45465e-07
1.05919e-06
5.37647e-07
1.08108e-06
4.25732e-07
1.08205e-06
3.13887e-07
1.06938e-06
2.0207e-07
1.04594e-06
9.66374e-08
1.02246e-06
-4.26273e-09
1.00587e-06
-1.28552e-07
1.00625e-06
-2.0082e-07
1.01235e-06
-1.95943e-07
1.02298e-06
-9.21332e-08
1.14805e-06
-2.9984e-07
1.25711e-06
-1.05002e-06
1.32039e-06
-1.69978e-06
1.37036e-06
-2.09245e-06
1.42604e-06
-2.27369e-06
1.48857e-06
-2.31395e-06
1.55879e-06
-2.27458e-06
1.63526e-06
-2.19345e-06
-2.09282e-06
1.71824e-06
8.07682e-08
-2.21023e-09
3.21093e-07
2.32484e-07
5.60255e-07
4.75482e-07
7.53677e-07
5.79039e-07
8.94018e-07
5.91269e-07
9.83242e-07
5.54144e-07
1.03246e-06
4.85993e-07
1.05553e-06
3.99813e-07
1.06156e-06
3.05218e-07
1.05359e-06
2.06982e-07
1.03935e-06
1.0977e-07
1.02794e-06
4.98666e-09
1.01647e-06
-1.17821e-07
1.02079e-06
-2.05632e-07
1.0248e-06
-2.00481e-07
1.06916e-06
-1.36885e-07
1.26683e-06
-4.97601e-07
1.42172e-06
-1.20478e-06
1.5012e-06
-1.77901e-06
1.54902e-06
-2.14005e-06
1.59183e-06
-2.31631e-06
1.63728e-06
-2.35909e-06
1.6895e-06
-2.32701e-06
1.75046e-06
-2.25322e-06
-2.16148e-06
1.81937e-06
1.42043e-08
-2.17379e-08
2.02584e-07
4.16135e-08
4.51712e-07
2.23856e-07
6.75622e-07
3.53519e-07
8.43389e-07
4.21257e-07
9.46706e-07
4.47687e-07
9.93877e-07
4.35346e-07
1.0072e-06
3.82744e-07
1.00514e-06
3.03686e-07
9.97778e-07
2.11682e-07
9.9087e-07
1.13475e-07
9.87499e-07
7.28809e-09
9.86481e-07
-1.17796e-07
9.93858e-07
-2.13553e-07
9.9751e-07
-2.04684e-07
1.11929e-06
-2.59052e-07
1.38906e-06
-7.67465e-07
1.57515e-06
-1.39075e-06
1.66431e-06
-1.86795e-06
1.70953e-06
-2.18502e-06
1.74153e-06
-2.34813e-06
1.77083e-06
-2.38841e-06
1.80733e-06
-2.36271e-06
1.85271e-06
-2.29897e-06
-2.21713e-06
1.90931e-06
3.22835e-08
-5.76098e-08
1.78788e-07
-1.08138e-07
4.1095e-07
-1.05824e-08
6.41569e-07
1.21083e-07
8.17302e-07
2.42058e-07
9.16053e-07
3.45747e-07
9.44786e-07
4.02503e-07
9.42873e-07
3.80495e-07
9.28083e-07
3.14448e-07
9.16737e-07
2.19325e-07
9.13899e-07
1.14596e-07
9.15858e-07
3.39749e-09
9.2401e-07
-1.26929e-07
9.21956e-07
-2.12199e-07
9.47762e-07
-2.3106e-07
1.2085e-06
-5.201e-07
1.52519e-06
-1.08422e-06
1.71586e-06
-1.58131e-06
1.80499e-06
-1.95687e-06
1.84597e-06
-2.22579e-06
1.86813e-06
-2.37012e-06
1.88313e-06
-2.40309e-06
1.90484e-06
-2.38485e-06
1.93759e-06
-2.3306e-06
-2.26193e-06
1.98239e-06
1.36093e-07
-1.96266e-07
3.25229e-07
-2.99267e-07
5.22681e-07
-2.09531e-07
6.90396e-07
-5.00529e-08
8.11474e-07
1.18749e-07
8.75139e-07
2.78222e-07
8.7406e-07
3.99162e-07
8.55825e-07
3.94176e-07
8.30597e-07
3.35289e-07
8.16188e-07
2.30468e-07
8.11466e-07
1.16205e-07
8.17271e-07
-4.43911e-09
8.16867e-07
-1.27822e-07
8.00256e-07
-1.96612e-07
9.74621e-07
-4.06018e-07
1.362e-06
-9.07767e-07
1.66755e-06
-1.38986e-06
1.83631e-06
-1.74998e-06
1.91693e-06
-2.03731e-06
1.95223e-06
-2.26087e-06
1.96422e-06
-2.38195e-06
1.96751e-06
-2.40644e-06
1.97837e-06
-2.39493e-06
1.99941e-06
-2.3522e-06
-2.29728e-06
2.03553e-06
1.7821e-07
-3.76594e-07
3.44137e-07
-4.66733e-07
4.86062e-07
-3.53601e-07
5.96779e-07
-1.62376e-07
6.78632e-07
3.1016e-08
7.27906e-07
2.24169e-07
7.24277e-07
3.98223e-07
7.09299e-07
4.03955e-07
6.9029e-07
3.49645e-07
6.78204e-07
2.38384e-07
6.77548e-07
1.13611e-07
6.89844e-07
-1.86889e-08
6.81172e-07
-1.21529e-07
7.8064e-07
-2.97169e-07
1.15449e-06
-7.80352e-07
1.53903e-06
-1.29255e-06
1.78661e-06
-1.63749e-06
1.92329e-06
-1.88659e-06
1.99294e-06
-2.10678e-06
2.02119e-06
-2.28894e-06
2.02353e-06
-2.38411e-06
2.02058e-06
-2.40319e-06
2.02255e-06
-2.3974e-06
2.03722e-06
-2.36585e-06
-2.32783e-06
2.06764e-06
1.44391e-07
-5.22007e-07
2.39619e-07
-5.63252e-07
3.10828e-07
-4.26959e-07
3.6303e-07
-2.21796e-07
4.1044e-07
-1.95018e-08
4.55402e-07
1.72711e-07
4.78202e-07
3.69557e-07
4.85035e-07
3.91332e-07
4.90107e-07
3.39389e-07
4.96353e-07
2.27811e-07
5.1194e-07
9.55096e-08
5.20794e-07
-3.14367e-08
5.97837e-07
-1.99802e-07
9.48646e-07
-6.48515e-07
1.38186e-06
-1.21383e-06
1.68114e-06
-1.59196e-06
1.86203e-06
-1.8184e-06
1.96863e-06
-1.99308e-06
2.02525e-06
-2.16322e-06
2.04386e-06
-2.30732e-06
2.04143e-06
-2.3815e-06
2.03783e-06
-2.39964e-06
2.03827e-06
-2.39708e-06
2.05091e-06
-2.3791e-06
-2.35744e-06
2.08119e-06
6.30222e-08
-5.87728e-07
7.59365e-08
-5.79e-07
8.27217e-08
-4.37817e-07
1.07283e-07
-2.44378e-07
9.7403e-08
-3.02736e-08
1.18877e-07
1.45648e-07
1.66149e-07
3.1533e-07
2.08159e-07
3.43055e-07
2.4827e-07
2.9352e-07
2.87317e-07
1.85232e-07
3.19374e-07
5.9102e-08
4.04007e-07
-1.16355e-07
7.40919e-07
-5.37419e-07
1.21195e-06
-1.11975e-06
1.54982e-06
-1.55179e-06
1.75804e-06
-1.8002e-06
1.88984e-06
-1.95014e-06
1.97613e-06
-2.07922e-06
2.02427e-06
-2.21115e-06
2.03804e-06
-2.32086e-06
2.03495e-06
-2.37821e-06
2.03062e-06
-2.39497e-06
2.03122e-06
-2.39817e-06
2.0472e-06
-2.39414e-06
-2.39037e-06
2.07997e-06
-3.53164e-08
-5.52714e-07
-1.09719e-07
-5.05433e-07
-1.69354e-07
-3.77453e-07
-2.05755e-07
-2.2101e-07
-2.32255e-07
1.05348e-09
-2.32334e-07
1.37884e-07
-1.69564e-07
2.47129e-07
-8.46367e-08
2.53337e-07
4.36037e-09
2.01134e-07
6.84055e-08
1.18435e-07
1.82478e-07
-5.33513e-08
5.34877e-07
-4.69575e-07
1.02912e-06
-1.03118e-06
1.40254e-06
-1.49296e-06
1.63325e-06
-1.78237e-06
1.77868e-06
-1.9455e-06
1.88142e-06
-2.05272e-06
1.95571e-06
-2.1533e-06
1.99786e-06
-2.25305e-06
2.00749e-06
-2.33023e-06
2.0023e-06
-2.3728e-06
1.9994e-06
-2.39209e-06
2.0071e-06
-2.40512e-06
2.02949e-06
-2.41709e-06
-2.42802e-06
2.06776e-06
-1.26949e-07
-4.27821e-07
-2.80088e-07
-3.534e-07
-4.13125e-07
-2.4763e-07
-5.07802e-07
-1.18403e-07
-5.48634e-07
3.21998e-08
-5.36082e-07
1.25606e-07
-4.59636e-07
1.70897e-07
-3.50165e-07
1.43997e-07
-2.19431e-07
7.25462e-08
-1.85314e-08
-7.7363e-08
3.61433e-07
-4.32315e-07
8.49614e-07
-9.5573e-07
1.2405e-06
-1.4215e-06
1.49484e-06
-1.74688e-06
1.6548e-06
-1.94203e-06
1.76454e-06
-2.05501e-06
1.84836e-06
-2.1363e-06
1.90818e-06
-2.21285e-06
1.93901e-06
-2.28358e-06
1.94622e-06
-2.33717e-06
1.94615e-06
-2.37246e-06
1.95319e-06
-2.39876e-06
1.97176e-06
-2.42412e-06
2.00383e-06
-2.44821e-06
-2.47105e-06
2.04671e-06
-2.01677e-07
-2.2087e-07
-3.94493e-07
-1.57413e-07
-5.58803e-07
-7.72755e-08
-6.83644e-07
-9.01683e-10
-7.27987e-07
8.54114e-08
-7.11513e-07
1.11036e-07
-6.21392e-07
8.44014e-08
-4.52307e-07
-1.85339e-08
-1.80755e-07
-1.89618e-07
2.15184e-07
-4.67338e-07
6.78819e-07
-8.9206e-07
1.06632e-06
-1.34223e-06
1.34234e-06
-1.69637e-06
1.5237e-06
-1.92755e-06
1.64355e-06
-2.06141e-06
1.73002e-06
-2.14112e-06
1.79534e-06
-2.20129e-06
1.83901e-06
-2.2562e-06
1.86115e-06
-2.30538e-06
1.87126e-06
-2.34695e-06
1.88271e-06
-2.38364e-06
1.90322e-06
-2.41925e-06
1.934e-06
-2.45411e-06
1.97246e-06
-2.4872e-06
-2.5164e-06
2.01843e-06
-2.42773e-07
2.8476e-08
-4.35009e-07
4.08443e-08
-5.99554e-07
8.79235e-08
-7.10965e-07
1.23759e-07
-7.54034e-07
1.29349e-07
-7.06909e-07
7.28255e-08
-5.46124e-07
-6.5657e-08
-2.61116e-07
-2.89608e-07
1.03961e-07
-5.41832e-07
5.05947e-07
-8.62765e-07
8.81527e-07
-1.2652e-06
1.1763e-06
-1.63461e-06
1.38338e-06
-1.90218e-06
1.52011e-06
-2.06338e-06
1.61152e-06
-2.1522e-06
1.67674e-06
-2.20586e-06
1.72366e-06
-2.2478e-06
1.75509e-06
-2.28724e-06
1.77678e-06
-2.3267e-06
1.79761e-06
-2.36744e-06
1.82394e-06
-2.40968e-06
1.85705e-06
-2.45194e-06
1.89476e-06
-2.49221e-06
1.93694e-06
-2.52842e-06
-2.56227e-06
1.98269e-06
-2.08477e-07
2.54501e-07
-3.82417e-07
2.24908e-07
-5.25895e-07
2.44274e-07
-6.29433e-07
2.30241e-07
-6.44303e-07
1.57979e-07
-5.57184e-07
9.93369e-10
-3.49816e-07
-2.54943e-07
-3.59492e-08
-5.86681e-07
3.18521e-07
-8.85808e-07
6.82649e-07
-1.22173e-06
9.95409e-07
-1.57426e-06
1.23125e-06
-1.86837e-06
1.39095e-06
-2.06025e-06
1.49317e-06
-2.16449e-06
1.56e-06
-2.21826e-06
1.60682e-06
-2.2521e-06
1.64216e-06
-2.28265e-06
1.67222e-06
-2.31685e-06
1.70263e-06
-2.3567e-06
1.73661e-06
-2.40103e-06
1.77405e-06
-2.44681e-06
1.81318e-06
-2.49101e-06
1.85364e-06
-2.53185e-06
1.89506e-06
-2.57034e-06
-2.60655e-06
1.93999e-06
-1.30997e-07
4.03478e-07
-2.90794e-07
3.98301e-07
-4.28489e-07
3.89037e-07
-5.04687e-07
3.1995e-07
-4.91782e-07
1.64297e-07
-4.11554e-07
-5.73593e-08
-2.05611e-07
-4.41011e-07
1.16021e-07
-8.93677e-07
4.67418e-07
-1.22848e-06
7.96878e-07
-1.54577e-06
1.06466e-06
-1.83864e-06
1.25358e-06
-2.05482e-06
1.37354e-06
-2.17831e-06
1.44687e-06
-2.23652e-06
1.49485e-06
-2.26533e-06
1.53212e-06
-2.28869e-06
1.56727e-06
-2.31724e-06
1.60467e-06
-2.35375e-06
1.64509e-06
-2.39667e-06
1.68688e-06
-2.44242e-06
1.72798e-06
-2.48758e-06
1.76784e-06
-2.53043e-06
1.80688e-06
-2.57126e-06
1.84783e-06
-2.61026e-06
-2.6499e-06
1.89106e-06
-9.1573e-08
5.101e-07
-2.21976e-07
5.38738e-07
-3.21309e-07
5.00839e-07
-3.65543e-07
3.8374e-07
-3.54417e-07
1.70688e-07
-3.03404e-07
-7.92599e-08
-7.3982e-08
-6.52008e-07
2.48124e-07
-1.20396e-06
5.84614e-07
-1.55768e-06
8.81346e-07
-1.83771e-06
1.10444e-06
-2.05859e-06
1.24983e-06
-2.19732e-06
1.33595e-06
-2.26259e-06
1.3886e-06
-2.28779e-06
1.42815e-06
-2.30389e-06
1.46648e-06
-2.32626e-06
1.50807e-06
-2.35822e-06
1.55252e-06
-2.39766e-06
1.59718e-06
-2.44085e-06
1.63974e-06
-2.48455e-06
1.6796e-06
-2.5271e-06
1.71766e-06
-2.56841e-06
1.75618e-06
-2.60889e-06
1.79558e-06
-2.65019e-06
-2.69164e-06
1.83804e-06
-7.51907e-08
6.00192e-07
-1.60349e-07
6.37623e-07
-2.13451e-07
5.68739e-07
-2.50019e-07
4.28117e-07
-1.93631e-07
1.59335e-07
-1.5684e-07
-9.23888e-08
7.7242e-08
-8.72997e-07
3.81509e-07
-1.49997e-06
6.88308e-07
-1.85875e-06
9.41727e-07
-2.08725e-06
1.1177e-06
-2.23098e-06
1.2233e-06
-2.30101e-06
1.28532e-06
-2.32249e-06
1.32886e-06
-2.32985e-06
1.36975e-06
-2.34373e-06
1.41369e-06
-2.3694e-06
1.46009e-06
-2.40397e-06
1.50609e-06
-2.4431e-06
1.54944e-06
-2.4837e-06
1.58962e-06
-2.5243e-06
1.62756e-06
-2.56469e-06
1.66485e-06
-2.60523e-06
1.70218e-06
-2.64663e-06
1.7415e-06
-2.68839e-06
-2.73227e-06
1.78201e-06
-4.61484e-08
6.57663e-07
-9.36921e-08
6.95201e-07
-1.17089e-07
5.98678e-07
-9.75294e-08
4.45415e-07
2.95851e-08
5.28436e-08
5.41862e-08
-9.6581e-08
2.42632e-07
-1.05329e-06
5.16057e-07
-1.76786e-06
7.78832e-07
-2.11736e-06
9.79728e-07
-2.28469e-06
1.10785e-06
-2.35731e-06
1.18319e-06
-2.37337e-06
1.23229e-06
-2.36998e-06
1.27569e-06
-2.37193e-06
1.32106e-06
-2.38809e-06
1.36829e-06
-2.41584e-06
1.4148e-06
-2.44983e-06
1.45861e-06
-2.48635e-06
1.49929e-06
-2.52388e-06
1.53758e-06
-2.56215e-06
1.57457e-06
-2.60134e-06
1.61104e-06
-2.64162e-06
1.64822e-06
-2.68285e-06
1.68538e-06
-2.72613e-06
-2.77031e-06
1.7242e-06
9.56245e-09
6.59093e-07
4.54243e-09
7.09586e-07
3.29916e-08
5.87394e-07
1.07233e-07
3.73648e-07
2.04307e-07
1.4402e-09
2.44516e-07
-1.29782e-07
4.13798e-07
-1.21869e-06
6.5071e-07
-2.0014e-06
8.56559e-07
-2.32055e-06
9.99505e-07
-2.42578e-06
1.0867e-06
-2.44152e-06
1.14083e-06
-2.42664e-06
1.1858e-06
-2.41323e-06
1.23144e-06
-2.41632e-06
1.27881e-06
-2.43452e-06
1.32547e-06
-2.46176e-06
1.36957e-06
-2.49331e-06
1.41071e-06
-2.52694e-06
1.44943e-06
-2.56211e-06
1.48649e-06
-2.5988e-06
1.52252e-06