/*--------------------------------*- C++ -*----------------------------------*\
  =========                 |
  \\      /  F ield         | OpenFOAM: The Open Source CFD Toolbox
   \\    /   O peration     | Website:  https://openfoam.org
    \\  /    A nd           | Version:  13
     \\/     M anipulation  |
\*---------------------------------------------------------------------------*/
FoamFile
{
    format      ascii;
    class       surfaceScalarField;
    location    "9";
    object      phi;
}
// * * * * * * * * * * * * * * * * * * * * * * * * * * * * * * * * * * * * * //

dimensions      [0 3 -1 0 0 0 0];

internalField   nonuniform List<scalar> 
12590
(
-9.23718e-13
9.23714e-13
-2.2917e-12
1.36798e-12
-3.3841e-12
1.09239e-12
-4.18174e-12
7.97637e-13
-4.69462e-12
5.12868e-13
-4.94542e-12
2.5079e-13
-4.89659e-12
-4.88342e-14
-4.51739e-12
-3.79209e-13
-3.79226e-12
-7.25138e-13
-2.72769e-12
-1.06458e-12
-1.35718e-12
-1.37052e-12
2.63674e-13
-1.62087e-12
2.06639e-12
-1.80273e-12
3.94831e-12
-1.88193e-12
5.78441e-12
-1.83611e-12
7.42913e-12
-1.64473e-12
8.75843e-12
-1.32931e-12
9.8459e-12
-1.08748e-12
1.05732e-11
-7.27279e-13
1.10294e-11
-4.56301e-13
1.12086e-11
-1.79194e-13
1.08043e-11
4.04314e-13
9.53298e-12
1.27131e-12
5.56468e-12
3.96828e-12
5.56467e-12
-9.39893e-13
1.8636e-12
-2.20233e-12
2.6304e-12
-3.20266e-12
2.09271e-12
-4.05619e-12
1.65116e-12
-4.8017e-12
1.25837e-12
-5.45306e-12
9.02135e-13
-6.00681e-12
5.04913e-13
-6.44216e-12
5.61208e-14
-6.74571e-12
-4.21592e-13
-6.91394e-12
-8.96374e-13
-6.95481e-12
-1.32965e-12
-6.89366e-12
-1.68204e-12
-6.78057e-12
-1.91584e-12
-6.6525e-12
-2.01001e-12
-6.51841e-12
-1.97022e-12
-6.3544e-12
-1.80875e-12
-6.2239e-12
-1.45983e-12
-6.17724e-12
-1.13416e-12
-6.15349e-12
-7.51042e-13
-6.07102e-12
-5.3879e-13
-5.78538e-12
-4.64852e-13
-5.17379e-12
-2.07287e-13
-3.96686e-12
6.4348e-14
-1.76666e-12
1.76806e-12
3.79801e-12
-1.21727e-12
3.08086e-12
-2.61676e-12
4.0299e-12
-3.72059e-12
3.19654e-12
-4.72644e-12
2.657e-12
-5.78897e-12
2.3209e-12
-6.71158e-12
1.82474e-12
-7.55346e-12
1.34679e-12
-8.27571e-12
7.78362e-13
-8.83933e-12
1.42009e-13
-9.21209e-12
-5.23622e-13
-9.36996e-12
-1.17179e-12
-9.30321e-12
-1.7488e-12
-9.018e-12
-2.20106e-12
-8.53349e-12
-2.49453e-12
-7.8739e-12
-2.62984e-12
-7.06423e-12
-2.61844e-12
-6.13382e-12
-2.39025e-12
-5.36075e-12
-1.90725e-12
-4.48394e-12
-1.62787e-12
-3.65524e-12
-1.36752e-12
-2.87557e-12
-1.24454e-12
-2.16864e-12
-9.14238e-13
-1.51637e-12
-5.87958e-13
-5.24771e-13
7.76444e-13
3.27324e-12
-1.56052e-12
4.64138e-12
-3.14624e-12
5.61563e-12
-4.38674e-12
4.43705e-12
-5.55179e-12
3.82205e-12
-6.73453e-12
3.50364e-12
-8.00484e-12
3.09506e-12
-9.03821e-12
2.38015e-12
-9.93523e-12
1.67538e-12
-1.06491e-11
8.55876e-13
-1.11404e-11
-3.23432e-14
-1.1372e-11
-9.40179e-13
-1.13163e-11
-1.80449e-12
-1.09596e-11
-2.55782e-12
-1.03126e-11
-3.14158e-12
-9.39674e-12
-3.54566e-12
-8.23186e-12
-3.78334e-12
-6.84631e-12
-3.77582e-12
-5.42315e-12
-3.33043e-12
-4.28039e-12
-2.77066e-12
-3.11385e-12
-2.53407e-12
-1.96513e-12
-2.39328e-12
-9.96948e-13
-1.88244e-12
-5.88229e-13
-9.96698e-13
-1.16814e-13
3.05006e-13
3.15642e-12
-1.86109e-12
6.50248e-12
-3.59953e-12
7.35408e-12
-4.96804e-12
5.80557e-12
-6.28286e-12
5.13689e-12
-7.61819e-12
4.83898e-12
-8.96781e-12
4.44469e-12
-1.03641e-11
3.77641e-12
-1.14156e-11
2.72694e-12
-1.22955e-11
1.73571e-12
-1.29441e-11
6.16346e-13
-1.33187e-11
-5.65658e-13
-1.3375e-11
-1.74819e-12
-1.30767e-11
-2.85609e-12
-1.24086e-11
-3.80968e-12
-1.13863e-11
-4.56802e-12
-1.00256e-11
-5.14406e-12
-8.3473e-12
-5.45409e-12
-6.35011e-12
-5.32763e-12
-4.63715e-12
-4.48364e-12
-3.25291e-12
-3.91833e-12
-2.0292e-12
-3.61702e-12
-9.25349e-13
-2.98631e-12
-3.8401e-13
-1.53807e-12
-6.32487e-14
-1.5779e-14
3.09317e-12
-2.10683e-12
8.60933e-12
-3.96148e-12
9.20875e-12
-5.45472e-12
7.29885e-12
-6.92344e-12
6.60563e-12
-8.42179e-12
6.33735e-12
-9.92468e-12
5.9476e-12
-1.14421e-11
5.29381e-12
-1.27887e-11
4.07364e-12
-1.384e-11
2.787e-12
-1.46651e-11
1.44141e-12
-1.52169e-11
-1.38844e-14
-1.54405e-11
-1.52451e-12
-1.52806e-11
-3.016e-12
-1.469e-11
-4.40031e-12
-1.36659e-11
-5.59209e-12
-1.22215e-11
-6.5885e-12
-1.03291e-11
-7.34651e-12
-8.11754e-12
-7.5392e-12
-5.69727e-12
-6.90392e-12
-3.79584e-12
-5.81977e-12
-2.32446e-12
-5.08841e-12
-1.09085e-12
-4.21993e-12
-1.97895e-13
-2.43104e-12
1.34251e-13
-3.47946e-13
3.22742e-12
-2.30883e-12
1.09182e-11
-4.25743e-12
1.11574e-11
-5.87779e-12
8.91925e-12
-7.50267e-12
8.23056e-12
-9.15877e-12
7.99349e-12
-1.08073e-11
7.59618e-12
-1.24008e-11
6.88729e-12
-1.40368e-11
5.70969e-12
-1.52088e-11
3.95909e-12
-1.61838e-11
2.41643e-12
-1.69015e-11
7.03758e-13
-1.73043e-11
-1.12168e-12
-1.73242e-11
-2.9961e-12
-1.68911e-11
-4.83337e-12
-1.5962e-11
-6.52125e-12
-1.45651e-11
-7.98535e-12
-1.26999e-11
-9.21173e-12
-1.02935e-11
-9.94559e-12
-7.33469e-12
-9.86276e-12
-4.75645e-12
-8.39803e-12
-2.78627e-12
-7.05861e-12
-1.37992e-12
-5.62629e-12
-1.60587e-13
-3.6504e-12
2.82982e-13
-7.91535e-13
3.5104e-12
-2.47e-12
1.33882e-11
-4.49334e-12
1.31808e-11
-6.23419e-12
1.06602e-11
-8.00435e-12
1.00008e-11
-9.80489e-12
9.7941e-12
-1.15836e-11
9.37491e-12
-1.32924e-11
8.59615e-12
-1.49689e-11
7.38631e-12
-1.62602e-11
5.25033e-12
-1.73324e-11
3.48876e-12
-1.81549e-11
1.52627e-12
-1.86892e-11
-5.87341e-13
-1.88739e-11
-2.8114e-12
-1.86294e-11
-5.07792e-12
-1.78725e-11
-7.27812e-12
-1.65906e-11
-9.26719e-12
-1.48159e-11
-1.09864e-11
-1.23772e-11
-1.23843e-11
-9.46174e-12
-1.27782e-11
-6.05552e-12
-1.18043e-11
-3.43996e-12
-9.67418e-12
-1.59896e-12
-7.4673e-12
-3.49962e-13
-4.89941e-12
3.32623e-13
-1.47414e-12
3.84302e-12
-2.58633e-12
1.59747e-11
-4.65815e-12
1.52527e-11
-6.49458e-12
1.24967e-11
-8.37526e-12
1.18816e-11
-1.02761e-11
1.1695e-11
-1.21305e-11
1.12294e-11
-1.38796e-11
1.03453e-11
-1.55054e-11
9.0122e-12
-1.69123e-11
6.65723e-12
-1.79436e-11
4.52014e-12
-1.8745e-11
2.32776e-12
-1.9304e-11
-2.83665e-14
-1.95816e-11
-2.5338e-12
-1.95077e-11
-5.15178e-12
-1.89834e-11
-7.80239e-12
-1.79176e-11
-1.03329e-11
-1.63454e-11
-1.25587e-11
-1.43465e-11
-1.43832e-11
-1.1389e-11
-1.57358e-11
-7.64535e-12
-1.55479e-11
-4.26331e-12
-1.30562e-11
-1.91638e-12
-9.81424e-12
-8.04612e-13
-6.0112e-12
3.70417e-13
-2.64918e-12
4.21343e-12
-2.64766e-12
1.86224e-11
-4.72496e-12
1.73302e-11
-6.60575e-12
1.43776e-11
-8.53304e-12
1.3809e-11
-1.04623e-11
1.36245e-11
-1.23139e-11
1.3081e-11
-1.40174e-11
1.2049e-11
-1.55246e-11
1.05195e-11
-1.69363e-11
8.069e-12
-1.77942e-11
5.37812e-12
-1.84367e-11
2.9703e-12
-1.88744e-11
4.09359e-13
-1.91108e-11
-2.2973e-12
-1.91134e-11
-5.14911e-12
-1.88007e-11
-8.11514e-12
-1.80435e-11
-1.109e-11
-1.67402e-11
-1.3862e-11
-1.49288e-11
-1.61946e-11
-1.27043e-11
-1.79603e-11
-9.36218e-12
-1.889e-11
-5.27936e-12
-1.7139e-11
-2.43066e-12
-1.2663e-11
-1.15866e-12
-7.2832e-12
4.27139e-13
-4.23498e-12
4.64057e-12
-2.63852e-12
2.12611e-11
-4.65245e-12
1.93442e-11
-6.49074e-12
1.62161e-11
-8.36103e-12
1.56794e-11
-1.02078e-11
1.54714e-11
-1.19475e-11
1.48209e-11
-1.35083e-11
1.36099e-11
-1.48438e-11
1.18551e-11
-1.60555e-11
9.2808e-12
-1.66628e-11
5.98552e-12
-1.70224e-11
3.32992e-12
-1.71769e-11
5.63987e-13
-1.7189e-11
-2.28518e-12
-1.70972e-11
-5.24085e-12
-1.68845e-11
-8.3278e-12
-1.64497e-11
-1.15247e-11
-1.56201e-11
-1.46916e-11
-1.42736e-11
-1.75411e-11
-1.2467e-11
-1.97669e-11
-1.01431e-11
-2.12139e-11
-6.10447e-12
-2.11776e-11
-2.61981e-12
-1.61476e-11
-8.6697e-13
-9.03604e-12
1.06268e-13
-5.20822e-12
4.74684e-12
-2.54104e-12
2.38023e-11
-4.39243e-12
2.11958e-11
-6.06093e-12
1.78848e-11
-7.72396e-12
1.73427e-11
-9.32659e-12
1.70742e-11
-1.07934e-11
1.62879e-11
-1.20625e-11
1.48792e-11
-1.30989e-11
1.28917e-11
-1.39554e-11
1.01374e-11
-1.43159e-11
6.34614e-12
-1.42617e-11
3.27581e-12
-1.39805e-11
2.8285e-13
-1.35679e-11
-2.69765e-12
-1.31486e-11
-5.6601e-12
-1.28156e-11
-8.66071e-12
-1.25719e-11
-1.17684e-11
-1.2281e-11
-1.49824e-11
-1.16904e-11
-1.81317e-11
-1.0604e-11
-2.08532e-11
-9.02716e-12
-2.27907e-11
-6.55814e-12
-2.36466e-11
-2.86135e-12
-1.98444e-11
-8.1084e-13
-1.10865e-11
-3.78642e-13
-5.6404e-12
4.36821e-12
-2.33757e-12
2.614e-11
-3.8971e-12
2.27556e-11
-5.2279e-12
1.92158e-11
-6.48356e-12
1.85985e-11
-7.62155e-12
1.82124e-11
-8.58694e-12
1.72535e-11
-9.3386e-12
1.56311e-11
-9.85697e-12
1.34102e-11
-1.01464e-11
1.0427e-11
-1.03457e-11
6.54555e-12
-9.76384e-12
2.69412e-12
-8.89317e-12
-5.87713e-13
-7.86091e-12
-3.72982e-12
-6.86465e-12
-6.65628e-12
-6.129e-12
-9.3963e-12
-5.82996e-12
-1.20674e-11
-5.99706e-12
-1.48153e-11
-6.42314e-12
-1.77055e-11
-6.69535e-12
-2.0581e-11
-6.46741e-12
-2.30186e-11
-5.65338e-12
-2.44606e-11
-3.08476e-12
-2.2413e-11
-1.19635e-12
-1.29749e-11
-5.1954e-13
-6.31718e-12
3.84868e-12
-2.01502e-12
2.81553e-11
-3.13036e-12
2.38712e-11
-3.92334e-12
2.00091e-11
-4.52915e-12
1.92046e-11
-4.92641e-12
1.86099e-11
-5.09247e-12
1.74198e-11
-5.0235e-12
1.55623e-11
-4.72838e-12
1.31153e-11
-4.22222e-12
9.92106e-12
-3.72375e-12
6.04723e-12
-2.92694e-12
1.89746e-12
-1.31475e-12
-2.19978e-12
3.45825e-13
-5.39028e-12
1.88963e-12
-8.19999e-12
3.0701e-12
-1.05767e-11
3.58988e-12
-1.25871e-11
3.20526e-12
-1.44306e-11
1.89359e-12
-1.63938e-11
-7.61071e-15
-1.86797e-11
-1.7984e-12
-2.12278e-11
-2.89274e-12
-2.33662e-11
-3.11842e-12
-2.21872e-11
-1.98955e-12
-1.41037e-11
-1.199e-12
-7.10769e-12
2.64969e-12
-1.56988e-12
2.97254e-11
-2.08297e-12
2.43846e-11
-2.13427e-12
2.00607e-11
-1.85374e-12
1.89244e-11
-1.25816e-12
1.80146e-11
-3.19353e-13
1.64813e-11
9.4604e-13
1.42972e-11
2.46432e-12
1.15972e-11
4.05884e-12
8.32674e-12
5.5975e-12
4.50875e-12
7.02291e-12
4.72202e-13
8.70392e-12
-3.88066e-12
1.10213e-11
-7.70758e-12
1.31342e-11
-1.03128e-11
1.48112e-11
-1.22535e-11
1.57096e-11
-1.34854e-11
1.54124e-11
-1.41334e-11
1.35658e-11
-1.45471e-11
1.01683e-11
-1.52822e-11
5.87146e-12
-1.69309e-11
1.85209e-12
-1.93468e-11
-1.54497e-12
-1.87901e-11
-3.42814e-12
-1.22205e-11
-2.49614e-12
-8.03964e-12
1.53566e-13
-1.00024e-12
3.07259e-11
-7.63006e-13
2.41477e-11
1.60352e-13
1.91377e-11
1.67838e-12
1.74067e-11
3.76096e-12
1.59323e-11
6.27629e-12
1.39662e-11
9.10919e-12
1.14645e-11
1.2126e-11
8.58069e-12
1.52479e-11
5.20506e-12
1.82264e-11
1.53038e-12
2.09024e-11
-2.20361e-12
2.30116e-11
-5.98976e-12
2.53644e-11
-1.00602e-11
2.79185e-11
-1.28667e-11
2.9818e-11
-1.4153e-11
3.07783e-11
-1.44456e-11
3.04139e-11
-1.37688e-11
2.82338e-11
-1.2367e-11
2.38178e-11
-1.08661e-11
1.71801e-11
-1.02931e-11
8.74505e-12
-1.09117e-11
-8.62439e-14
-9.95879e-12
-5.48571e-12
-6.82101e-12
-4.62688e-12
-8.89842e-12
-4.4733e-12
-3.26437e-13
3.10527e-11
8.76662e-13
2.29449e-11
3.11699e-12
1.68977e-11
6.19012e-12
1.43339e-11
9.97627e-12
1.21465e-11
1.43711e-11
9.57177e-12
1.92087e-11
6.62721e-12
2.43554e-11
3.43426e-12
2.97049e-11
-1.44245e-13
3.4875e-11
-3.63955e-12
3.95784e-11
-6.90684e-12
4.34626e-11
-9.87381e-12
4.60122e-11
-1.26096e-11
4.86944e-11
-1.55489e-11
5.07956e-11
-1.62541e-11
5.14549e-11
-1.51048e-11
5.03249e-11
-1.26388e-11
4.70039e-11
-9.04598e-12
4.10263e-11
-4.88832e-12
3.22403e-11
-1.50707e-12
1.73937e-11
3.93493e-12
2.01473e-12
5.42022e-12
-9.41803e-12
4.61179e-12
-8.80085e-12
-9.51558e-12
-1.32742e-11
4.26671e-13
3.06263e-11
2.77623e-12
2.05957e-11
6.46025e-12
1.3214e-11
1.13196e-11
9.47484e-12
1.71706e-11
6.29587e-12
2.38277e-11
2.91501e-12
3.11989e-11
-7.43677e-13
3.92906e-11
-4.65714e-12
4.76008e-11
-8.45414e-12
5.58437e-11
-1.18823e-11
6.36512e-11
-1.47142e-11
7.05537e-11
-1.67762e-11
7.59455e-11
-1.80012e-11
7.89347e-11
-1.8538e-11
8.13766e-11
-1.86959e-11
8.21111e-11
-1.58392e-11
8.00485e-11
-1.05761e-11
7.45126e-11
-3.51009e-12
6.49375e-11
4.68689e-12
5.06549e-11
1.27755e-11
2.99636e-11
2.46263e-11
4.60426e-12
3.07795e-11
-2.12023e-11
3.04183e-11
-2.46555e-11
-6.06237e-12
-3.79296e-11
1.20326e-12
2.94233e-11
4.7202e-12
1.70791e-11
1.00202e-11
7.91441e-12
1.68763e-11
2.61912e-12
2.49224e-11
-1.74986e-12
3.42231e-11
-6.38526e-12
4.47681e-11
-1.12883e-11
5.61584e-11
-1.60471e-11
6.81545e-11
-2.045e-11
8.04574e-11
-2.41849e-11
9.2687e-11
-2.69436e-11
1.04333e-10
-2.84221e-11
1.14643e-10
-2.83115e-11
1.22601e-10
-2.64957e-11
1.26872e-10
-2.29662e-11
1.2894e-10
-1.7907e-11
1.2841e-10
-1.00464e-11
1.2206e-10
2.84009e-12
1.08557e-10
1.81895e-11
8.48472e-11
3.64856e-11
5.00846e-11
5.9389e-11
1.28806e-13
8.07353e-11
-5.68069e-11
8.7354e-11
-8.65671e-11
2.36978e-11
-1.24497e-10
1.92115e-12
2.75025e-11
6.65486e-12
1.23459e-11
1.36555e-11
9.14271e-13
2.25381e-11
-6.26301e-12
3.32949e-11
-1.25062e-11
4.56444e-11
-1.87343e-11
5.9333e-11
-2.49765e-11
7.42204e-11
-3.0934e-11
9.00727e-11
-3.6302e-11
1.06627e-10
-4.07389e-11
1.23565e-10
-4.38815e-11
1.40487e-10
-4.53432e-11
1.56885e-10
-4.471e-11
1.71952e-10
-4.15624e-11
1.8428e-10
-3.5294e-11
1.91415e-10
-2.50423e-11
1.92131e-10
-1.0762e-11
1.87782e-10
7.18895e-12
1.73882e-10
3.20895e-11
1.44548e-10
6.582e-11
9.22702e-11
1.11667e-10
4.65117e-12
1.68354e-10
-1.16688e-10
2.08693e-10
-2.31149e-10
1.38159e-10
-3.55646e-10
2.37829e-12
2.51247e-11
7.35209e-12
7.37258e-12
1.46188e-11
-6.35196e-12
2.39156e-11
-1.55593e-11
3.49714e-11
-2.35614e-11
4.75852e-11
-3.13476e-11
6.1608e-11
-3.89989e-11
7.69814e-11
-4.6307e-11
9.36662e-11
-5.29864e-11
1.1165e-10
-5.87228e-11
1.30947e-10
-6.31774e-11
1.5159e-10
-6.59863e-11
1.73635e-10
-6.67551e-11
1.97114e-10
-6.50413e-11
2.22116e-10
-6.02958e-11
2.48982e-10
-5.1908e-11
2.7764e-10
-3.94199e-11
3.06863e-10
-2.20339e-11
3.36761e-10
2.19201e-12
3.69567e-10
3.30137e-11
4.08943e-10
7.22912e-11
4.55654e-10
1.21643e-10
4.97398e-10
1.66949e-10
4.36309e-10
1.99247e-10
1.34612e-10
-5.39486e-11
2.57505e-12
2.25501e-11
8.0148e-12
1.93339e-12
1.60327e-11
-1.43692e-11
2.62642e-11
-2.57902e-11
3.84208e-11
-3.57175e-11
5.23124e-11
-4.52386e-11
6.7827e-11
-5.45129e-11
8.4909e-11
-6.33885e-11
1.03541e-10
-7.1618e-11
1.23738e-10
-7.89194e-11
1.45547e-10
-8.49861e-11
1.69048e-10
-8.94865e-11
1.9435e-10
-9.20571e-11
2.21605e-10
-9.22966e-11
2.51061e-10
-8.97511e-11
2.83087e-10
-8.39341e-11
3.17987e-10
-7.43198e-11
3.5622e-10
-6.02669e-11
3.99435e-10
-4.1023e-11
4.48531e-10
-1.6082e-11
5.0488e-10
1.59419e-11
5.71867e-10
5.46567e-11
6.4117e-10
9.76463e-11
7.02172e-10
1.38245e-10
1.55781e-10
6.81003e-10
2.72153e-12
1.98291e-11
8.53496e-12
-3.87942e-12
1.71315e-11
-2.29651e-11
2.81154e-11
-3.67734e-11
4.11897e-11
-4.87912e-11
5.61658e-11
-6.0214e-11
7.29364e-11
-7.1283e-11
9.14503e-11
-8.19019e-11
1.11699e-10
-9.18658e-11
1.33709e-10
-1.00929e-10
1.57543e-10
-1.08821e-10
1.83303e-10
-1.15246e-10
2.11129e-10
-1.19883e-10
2.41216e-10
-1.22384e-10
2.73834e-10
-1.22369e-10
3.09336e-10
-1.19435e-10
3.4818e-10
-1.13164e-10
3.91029e-10
-1.03115e-10
4.38783e-10
-8.87771e-11
4.92195e-10
-6.94934e-11
5.52402e-10
-4.42654e-11
6.19181e-10
-1.21225e-11
6.89058e-10
2.77691e-11
7.51992e-10
7.53112e-11
1.28736e-10
7.79037e-10
2.82233e-12
1.70073e-11
8.91013e-12
-9.96658e-12
1.79383e-11
-3.19926e-11
2.95028e-11
-4.83372e-11
4.32996e-11
-6.25873e-11
5.91378e-11
-7.60516e-11
7.69064e-11
-8.9051e-11
9.65518e-11
-1.01547e-10
1.18062e-10
-1.13375e-10
1.4146e-10
-1.24326e-10
1.66801e-10
-1.34161e-10
1.94175e-10
-1.42619e-10
2.2371e-10
-1.49418e-10
2.55577e-10
-1.5425e-10
2.89992e-10
-1.56785e-10
3.27222e-10
-1.56665e-10
3.67572e-10
-1.53515e-10
4.11358e-10
-1.46901e-10
4.58848e-10
-1.36267e-10
5.10157e-10
-1.20802e-10
5.65062e-10
-9.917e-11
6.22201e-10
-6.92618e-11
6.78174e-10
-2.82037e-11
7.25496e-10
2.79886e-11
1.05743e-10
7.4849e-10
2.89432e-12
1.41135e-11
9.17828e-12
-1.62499e-11
1.85188e-11
-4.13325e-11
3.05138e-11
-6.03315e-11
4.48566e-11
-7.69295e-11
6.13516e-11
-9.25459e-11
7.9882e-11
-1.07581e-10
1.00385e-10
-1.22049e-10
1.22837e-10
-1.35827e-10
1.47243e-10
-1.48732e-10
1.73636e-10
-1.60554e-10
2.02074e-10
-1.71057e-10
2.32638e-10
-1.79982e-10
2.65434e-10
-1.87045e-10
3.00582e-10
-1.91933e-10
3.38206e-10
-1.94288e-10
3.7839e-10
-1.93699e-10
4.21126e-10
-1.89637e-10
4.66228e-10
-1.81369e-10
5.13217e-10
-1.6779e-10
5.61153e-10
-1.47106e-10
6.08404e-10
-1.16512e-10
6.52103e-10
-7.19031e-11
6.87762e-10
-7.67063e-12
8.5971e-11
7.07535e-10
2.93997e-12
1.11741e-11
9.34589e-12
-2.26552e-11
1.88863e-11
-5.08722e-11
3.11694e-11
-7.26139e-11
4.58903e-11
-9.16498e-11
6.28496e-11
-1.09505e-10
8.19217e-11
-1.26652e-10
1.03031e-10
-1.43158e-10
1.26135e-10
-1.5893e-10
1.51216e-10
-1.73813e-10
1.78275e-10
-1.87612e-10
2.07326e-10
-2.00108e-10
2.38394e-10
-2.11049e-10
2.71506e-10
-2.20157e-10
3.06679e-10
-2.27106e-10
3.43898e-10
-2.31506e-10
3.8307e-10
-2.32871e-10
4.23976e-10
-2.30543e-10
4.66197e-10
-2.23589e-10
5.09028e-10
-2.10621e-10
5.51445e-10
-1.89523e-10
5.92104e-10
-1.57171e-10
6.29356e-10
-1.09155e-10
6.61124e-10
-3.9438e-11
6.07694e-11
6.86325e-10
2.96095e-12
8.2137e-12
9.41979e-12
-2.91134e-11
1.90565e-11
-6.05083e-11
3.14971e-11
-8.50539e-11
4.64432e-11
-1.06595e-10
6.36917e-11
-1.26753e-10
8.31078e-11
-1.46068e-10
1.04601e-10
-1.6465e-10
1.28108e-10
-1.82437e-10
1.53587e-10
-1.99291e-10
1.81002e-10
-2.15028e-10
2.10328e-10
-2.29433e-10
2.41533e-10
-2.42254e-10
2.74576e-10
-2.532e-10
3.09391e-10
-2.6192e-10
3.45862e-10
-2.67978e-10
3.83798e-10
-2.70806e-10
4.2289e-10
-2.69634e-10
4.62676e-10
-2.63375e-10
5.02526e-10
-2.50472e-10
5.41689e-10
-2.28686e-10
5.79421e-10
-1.94903e-10
6.15236e-10
-1.4497e-10
6.49338e-10
-7.35393e-11
2.61809e-11
6.83926e-10
2.96001e-12
5.25422e-12
9.40956e-12
-3.55623e-11
1.90507e-11
-7.01487e-11
3.15337e-11
-9.75363e-11
4.65697e-11
-1.21631e-10
6.39543e-11
-1.44137e-10
8.35433e-11
-1.65656e-10
1.05232e-10
-1.86338e-10
1.28937e-10
-2.06143e-10
1.54592e-10
-2.24945e-10
1.82134e-10
-2.42569e-10
2.11499e-10
-2.58797e-10
2.42613e-10
-2.73369e-10
2.75389e-10
-2.85975e-10
3.09705e-10
-2.96236e-10
3.45401e-10
-3.03673e-10
3.82252e-10
-3.07657e-10
4.1996e-10
-3.07342e-10
4.58156e-10
-3.01571e-10
4.96429e-10
-2.88745e-10
5.34435e-10
-2.66691e-10
5.72081e-10
-2.32549e-10
6.09845e-10
-1.82734e-10
6.49292e-10
-1.12987e-10
-1.85227e-11
6.93996e-10
2.94e-12
2.31474e-12
9.32744e-12
-4.19491e-11
1.88946e-11
-7.97153e-11
3.13219e-11
-1.09963e-10
4.63331e-11
-1.36641e-10
6.37242e-11
-1.61527e-10
8.33438e-11
-1.85275e-10
1.05074e-10
-2.08068e-10
1.28816e-10
-2.29884e-10
1.54482e-10
-2.50611e-10
1.81988e-10
-2.70074e-10
2.11244e-10
-2.88052e-10
2.42151e-10
-3.04275e-10
2.74593e-10
-3.18417e-10
3.08433e-10
-3.30076e-10
3.43502e-10
-3.38742e-10
3.796e-10
-3.43755e-10
4.16505e-10
-3.44247e-10
4.53999e-10
-3.39065e-10
4.91936e-10
-3.26682e-10
5.30369e-10
-3.05124e-10
5.69745e-10
-2.71925e-10
6.11195e-10
-2.24183e-10
6.56943e-10
-1.58735e-10
-7.24911e-11
7.10912e-10
2.90454e-12
-5.89304e-13
9.18648e-12
-4.82305e-11
1.8616e-11
-8.91443e-11
3.09073e-11
-1.22254e-10
4.57999e-11
-1.51533e-10
6.30926e-11
-1.78819e-10
8.26286e-11
-2.04811e-10
1.0428e-10
-2.29719e-10
1.27937e-10
-2.53541e-10
1.53498e-10
-2.76171e-10
1.80862e-10
-2.97438e-10
2.09927e-10
-3.17117e-10
2.40584e-10
-3.34932e-10
2.72713e-10
-3.50546e-10
3.06181e-10
-3.63544e-10
3.40847e-10
-3.73407e-10
3.76568e-10
-3.79477e-10
4.13227e-10
-3.80906e-10
4.50772e-10
-3.76609e-10
4.893e-10
-3.6521e-10
5.29181e-10
-3.45005e-10
5.71235e-10
-3.13979e-10
6.16958e-10
-2.69906e-10
6.68791e-10
-2.10568e-10
-1.34128e-10
7.30428e-10
2.85677e-12
-3.44559e-12
9.0001e-12
-5.43733e-11
1.82424e-11
-9.8386e-11
3.03351e-11
-1.34346e-10
4.50358e-11
-1.66233e-10
6.2148e-11
-1.95931e-10
8.15129e-11
-2.24175e-10
1.02996e-10
-2.51202e-10
1.2648e-10
-2.77024e-10
1.51855e-10
-3.01546e-10
1.79015e-10
-3.24598e-10
2.07854e-10
-3.45956e-10
2.38265e-10
-3.65343e-10
2.70138e-10
-3.82419e-10
3.03367e-10
-3.96772e-10
3.37855e-10
-4.07895e-10
3.73532e-10
-4.15154e-10
4.10389e-10
-4.17763e-10
4.48524e-10
-4.14745e-10
4.88227e-10
-4.04912e-10
5.30087e-10
-3.86865e-10
5.75137e-10
-3.59028e-10
6.25009e-10
-3.19778e-10
6.82096e-10
-2.67654e-10
-2.01694e-10
7.49662e-10
2.80005e-12
-6.24517e-12
8.78047e-12
-6.03531e-11
1.77995e-11
-1.07404e-10
2.96474e-11
-1.46193e-10
4.41011e-11
-1.80686e-10
6.09718e-11
-2.12801e-10
8.01008e-11
-2.43304e-10
1.01352e-10
-2.72452e-10
1.24602e-10
-3.00275e-10
1.49741e-10
-3.26684e-10
1.76663e-10
-3.51519e-10
2.05265e-10
-3.74559e-10
2.35453e-10
-3.9553e-10
2.67139e-10
-4.14104e-10
3.0025e-10
-4.29883e-10
3.34741e-10
-4.42386e-10
3.70617e-10
-4.5103e-10
4.07965e-10
-4.55111e-10
4.47007e-10
-4.53786e-10
4.88163e-10
-4.46069e-10
5.32151e-10
-4.30853e-10
5.80088e-10
-4.06964e-10
6.3359e-10
-3.73281e-10
6.94856e-10
-3.2892e-10
-2.7351e-10
7.66673e-10
2.73672e-12
-8.98144e-12
8.53853e-12
-6.61544e-11
1.73099e-11
-1.16175e-10
2.88806e-11
-1.57763e-10
4.30489e-11
-1.94854e-10
5.96344e-11
-2.29386e-10
7.84817e-11
-2.62151e-10
9.94548e-11
-2.93425e-10
1.22432e-10
-3.23252e-10
1.47304e-10
-3.51555e-10
1.73969e-10
-3.78183e-10
2.02336e-10
-4.02926e-10
2.32327e-10
-4.25521e-10
2.6388e-10
-4.45657e-10
2.9696e-10
-4.62962e-10
3.31572e-10
-4.76998e-10
3.67788e-10
-4.87245e-10
4.05772e-10
-4.93096e-10
4.45832e-10
-4.93845e-10
4.88472e-10
-4.88708e-10
5.34462e-10
-4.76842e-10
5.84911e-10
-4.57414e-10
6.41332e-10
-4.29701e-10
7.0566e-10
-3.93248e-10
-3.48071e-10
7.80221e-10
2.66916e-12
-1.16502e-11
8.28301e-12
-7.17678e-11
1.67923e-11
-1.24684e-10
2.80657e-11
-1.69036e-10
4.19227e-11
-2.08711e-10
5.81938e-11
-2.45657e-10
7.67284e-11
-2.80685e-10
9.73932e-11
-3.14089e-10
1.2007e-10
-3.45928e-10
1.44654e-10
-3.76139e-10
1.71052e-10
-4.04581e-10
1.99186e-10
-4.3106e-10
2.28997e-10
-4.55332e-10
2.60448e-10
-4.77108e-10
2.93541e-10
-4.96054e-10
3.28324e-10
-5.11781e-10
3.64922e-10
-5.23842e-10
4.03555e-10
-5.31729e-10
4.44585e-10
-5.34875e-10
4.88553e-10
-5.32676e-10
5.36231e-10
-5.2452e-10
5.88667e-10
-5.0985e-10
6.47216e-10
-4.88251e-10
7.13541e-10
-4.59573e-10
-4.24076e-10
7.89546e-10
2.59866e-12
-1.42484e-11
8.02117e-12
-7.71898e-11
1.62616e-11
-1.32924e-10
2.72266e-11
-1.80001e-10
4.07572e-11
-2.22241e-10
5.66951e-11
-2.61594e-10
7.48961e-11
-2.98885e-10
9.52321e-11
-3.34425e-10
1.1759e-10
-3.68286e-10
1.4187e-10
-4.00419e-10
1.67991e-10
-4.30702e-10
1.95887e-10
-4.58956e-10
2.25517e-10
-4.84962e-10
2.5687e-10
-5.08461e-10
2.89975e-10
-5.29159e-10
3.24917e-10
-5.46723e-10
3.61855e-10
-5.60781e-10
4.01048e-10
-5.70921e-10
4.4288e-10
-5.76707e-10
4.87898e-10
-5.77693e-10
5.36837e-10
-5.73459e-10
5.90655e-10
-5.63667e-10
6.50536e-10
-5.48131e-10
7.17874e-10
-5.2691e-10
-5.00415e-10
7.94213e-10
2.52673e-12
-1.67747e-11
7.75792e-12
-8.24205e-11
1.57288e-11
-1.40894e-10
2.63815e-11
-1.90653e-10
3.95775e-11
-2.35436e-10
5.51709e-11
-2.77187e-10
7.30246e-11
-3.16739e-10
9.30164e-11
-3.54416e-10
1.15039e-10
-3.90308e-10
1.39001e-10
-4.24381e-10
1.64829e-10
-4.5653e-10
1.92472e-10
-4.86599e-10
2.21904e-10
-5.14393e-10
2.53133e-10
-5.39689e-10
2.86211e-10
-5.62237e-10
3.21246e-10
-5.81759e-10
3.58421e-10
-5.97955e-10
3.98009e-10
-6.10509e-10
4.40398e-10
-6.19096e-10
4.86112e-10
-6.23407e-10
5.35831e-10
-6.23179e-10
5.90405e-10
-6.18241e-10
6.50846e-10
-6.08573e-10
7.1831e-10
-5.94374e-10
-5.76136e-10
7.94032e-10
2.45386e-12
-1.92282e-11
7.49719e-12
-8.74634e-11
1.52017e-11
-1.48598e-10
2.55424e-11
-2.00993e-10
3.84011e-11
-2.48295e-10
5.36429e-11
-2.92428e-10
7.11392e-11
-3.34235e-10
9.0774e-11
-3.74051e-10
1.12446e-10
-4.11979e-10
1.36072e-10
-4.48006e-10
1.61586e-10
-4.82044e-10
1.88949e-10
-5.13961e-10
2.18146e-10
-5.4359e-10
2.492e-10
-5.70744e-10
2.82179e-10
-5.95215e-10
3.17204e-10
-6.16783e-10
3.54465e-10
-6.35216e-10
3.94237e-10
-6.50281e-10
4.36892e-10
-6.61751e-10
4.82916e-10
-6.69431e-10
5.3292e-10
-6.73182e-10
5.87639e-10
-6.7296e-10
6.47928e-10
-6.68861e-10
7.14727e-10
-6.61173e-10
-6.50425e-10
7.89016e-10
2.38084e-12
-2.16086e-11
7.24104e-12
-9.23231e-11
1.46847e-11
-1.56042e-10
2.47169e-11
-2.11025e-10
3.72375e-11
-2.60815e-10
5.21236e-11
-3.07314e-10
6.92539e-11
-3.51365e-10
8.85187e-11
-3.93315e-10
1.09823e-10
-4.33284e-10
1.3309e-10
-4.71272e-10
1.58261e-10
-5.07215e-10
1.85304e-10
-5.41004e-10
2.14215e-10
-5.72501e-10
2.45025e-10
-6.01554e-10
2.77808e-10
-6.27998e-10
3.1269e-10
-6.51665e-10
3.4986e-10
-6.72386e-10
3.89578e-10
-6.89999e-10
4.32191e-10
-7.04363e-10
4.78134e-10
-7.15374e-10
5.27942e-10
-7.2299e-10
5.8224e-10
-7.27258e-10
6.41733e-10
-7.28355e-10
7.07179e-10
-7.26619e-10
-7.22588e-10
7.79342e-10
2.30807e-12
-2.39163e-11
6.99102e-12
-9.70057e-11
1.41804e-11
-1.63231e-10
2.39083e-11
-2.20752e-10
3.60918e-11
-2.72998e-10
5.06181e-11
-3.2184e-10
6.73735e-11
-3.6812e-10
8.62543e-11
-4.12196e-10
1.07171e-10
-4.542e-10
1.30051e-10
-4.94152e-10
1.54843e-10
-5.32007e-10
1.81518e-10
-5.67679e-10
2.10079e-10
-6.01061e-10
2.40558e-10
-6.32033e-10
2.73033e-10
-6.60472e-10
3.07624e-10
-6.86256e-10
3.44509e-10
-7.09271e-10
3.83929e-10
-7.29418e-10
4.26191e-10
-7.46626e-10
4.71678e-10
-7.60861e-10
5.20845e-10
-7.72156e-10
5.7421e-10
-7.80623e-10
6.32347e-10
-7.86491e-10
6.95852e-10
-7.90124e-10
-7.92046e-10
7.6531e-10
2.23871e-12
-2.61547e-11
6.74761e-12
-1.01514e-10
1.3689e-11
-1.70172e-10
2.31172e-11
-2.3018e-10
3.49639e-11
-2.84844e-10
4.91261e-11
-3.36002e-10
6.54967e-11
-3.8449e-10
8.39771e-11
-4.30676e-10
1.04482e-10
-4.74705e-10
1.26943e-10
-5.16613e-10
1.51313e-10
-5.56376e-10
1.77564e-10
-5.93931e-10
2.057e-10
-6.29197e-10
2.35755e-10
-6.62088e-10
2.67799e-10
-6.92515e-10
3.01944e-10
-7.20401e-10
3.3835e-10
-7.45677e-10
3.77229e-10
-7.68298e-10
4.18849e-10
-7.88245e-10
4.63533e-10
-8.05545e-10
5.11658e-10
-8.20281e-10
5.63647e-10
-8.32612e-10
6.1995e-10
-8.42794e-10
6.81026e-10
-8.51199e-10
-8.58328e-10
7.47308e-10
2.16784e-12
-2.83222e-11
6.50924e-12
-1.05855e-10
1.32092e-11
-1.76871e-10
2.23416e-11
-2.39312e-10
3.38514e-11
-2.96354e-10
4.76439e-11
-3.49794e-10
6.3618e-11
-4.00464e-10
8.16795e-11
-4.48737e-10
1.01746e-10
-4.94771e-10
1.23753e-10
-5.38619e-10
1.47652e-10
-5.80274e-10
1.73418e-10
-6.19696e-10
2.01051e-10
-6.56831e-10
2.30581e-10
-6.91617e-10
2.62069e-10
-7.24003e-10
2.95613e-10
-7.53944e-10
3.3135e-10
-7.81414e-10
3.69462e-10
-8.06409e-10
4.1017e-10
-8.28954e-10
4.53741e-10
-8.49117e-10
5.00479e-10
-8.67018e-10
5.50712e-10
-8.82845e-10
6.04787e-10
-8.96869e-10
6.63041e-10
-9.09453e-10
-9.21066e-10
7.25779e-10
2.09375e-12
-3.04156e-11
6.27419e-12
-1.10035e-10
1.27389e-11
-1.83336e-10
2.15786e-11
-2.48152e-10
3.27499e-11
-3.07525e-10
4.61658e-11
-3.63209e-10
6.17301e-11
-4.16028e-10
7.93519e-11
-4.66359e-10
9.89518e-11
-5.14371e-10
1.20464e-10
-5.60132e-10
1.43843e-10
-6.03652e-10
1.69059e-10
-6.44913e-10
1.96109e-10
-6.83881e-10
2.25015e-10
-7.20523e-10
2.55824e-10
-7.54813e-10
2.88619e-10
-7.86739e-10
3.2351e-10
-8.16306e-10
3.60646e-10
-8.43544e-10
4.00204e-10
-8.68512e-10
4.42394e-10
-8.91307e-10
4.8745e-10
-9.12073e-10
5.35619e-10
-9.31015e-10
5.87152e-10
-9.48402e-10
6.42282e-10
-9.64583e-10
-9.79987e-10
7.01204e-10
2.01902e-12
-3.24343e-11
6.04222e-12
-1.14058e-10
1.22761e-11
-1.89569e-10
2.08246e-11
-2.567e-10
3.16548e-11
-3.18355e-10
4.46856e-11
-3.7624e-10
5.98253e-11
-4.31168e-10
7.69855e-11
-4.83519e-10
9.60877e-11
-5.33473e-10
1.17067e-10
-5.81111e-10
1.39873e-10
-6.26459e-10
1.64476e-10
-6.69515e-10
1.90864e-10
-7.10268e-10
2.19048e-10
-7.48707e-10
2.49064e-10
-7.84828e-10
2.80971e-10
-8.18646e-10
3.14857e-10
-8.50192e-10
3.50834e-10
-8.7952e-10
3.89036e-10
-9.06714e-10
4.2962e-10
-9.31891e-10
4.72755e-10
-9.55208e-10
5.18616e-10
-9.76875e-10
5.67369e-10
-9.97154e-10
6.19157e-10
-1.01637e-09
-1.03491e-09
6.74081e-10
1.94143e-12
-3.43755e-11
5.8122e-12
-1.17928e-10
1.18186e-11
-1.95575e-10
2.00766e-11
-2.64958e-10
3.05613e-11
-3.28839e-10
4.31977e-11
-3.88876e-10
5.78971e-11
-4.45867e-10
7.45729e-11
-5.00194e-10
9.31469e-11
-5.52047e-10
1.13552e-10
-6.01516e-10
1.35737e-10
-6.48643e-10
1.59664e-10
-6.93442e-10
1.85314e-10
-7.35919e-10
2.12688e-10
-7.7608e-10
2.41804e-10
-8.13944e-10
2.72702e-10
-8.49544e-10
3.05443e-10
-8.82932e-10
3.40103e-10
-9.14181e-10
3.76779e-10
-9.4339e-10
4.15576e-10
-9.70687e-10
4.56605e-10
-9.96238e-10
4.99975e-10
-1.02025e-09
5.45781e-10
-1.04296e-09
5.94086e-10
-1.06468e-09
-1.08574e-09
6.44913e-10
1.86745e-12
-3.62426e-11
5.58506e-12
-1.21646e-10
1.13652e-11
-2.01355e-10
1.93314e-11
-2.72923e-10
2.94659e-11
-3.38973e-10
4.16977e-11
-4.01108e-10
5.59408e-11
-4.6011e-10
7.21097e-11
-5.16363e-10
9.01253e-11
-5.70062e-10
1.09919e-10
-6.2131e-10
1.31434e-10
-6.70158e-10
1.54628e-10
-7.16636e-10
1.79472e-10
-7.60763e-10
2.05954e-10
-8.02562e-10
2.34078e-10
-8.42067e-10
2.63861e-10
-8.79328e-10
2.95338e-10
-9.14409e-10
3.28555e-10
-9.47398e-10
3.63568e-10
-9.78403e-10
4.00438e-10
-1.00756e-09
4.39226e-10
-1.03503e-09
4.79982e-10
-1.061e-09
5.22737e-10
-1.08571e-09
5.67491e-10
-1.10943e-09
-1.13244e-09
6.14196e-10
1.79314e-12
-3.80355e-11
5.35929e-12
-1.25212e-10
1.09141e-11
-2.06909e-10
1.85872e-11
-2.80596e-10
2.83658e-11
-3.48752e-10
4.0183e-11
-4.12925e-10
5.39543e-11
-4.73881e-10
6.95946e-11
-5.32003e-10
8.7024e-11
-5.87492e-10
1.06171e-10
-6.40456e-10
1.26974e-10
-6.90961e-10
1.49383e-10
-7.39045e-10
1.7336e-10
-7.8474e-10
1.98881e-10
-8.28083e-10
2.25932e-10
-8.69118e-10
2.54513e-10
-9.07908e-10
2.84631e-10
-9.44527e-10
3.16304e-10
-9.79071e-10
3.49553e-10
-1.01165e-09
3.84399e-10
-1.0424e-09
4.20857e-10
-1.07148e-09
4.58927e-10
-1.09907e-09
4.98588e-10
-1.12537e-09
5.39783e-10
-1.15062e-09
-1.17507e-09
5.82412e-10
1.71797e-12
-3.97532e-11
5.13433e-12
-1.28628e-10
1.04646e-11
-2.12239e-10
1.78426e-11
-2.87974e-10
2.72601e-11
-3.58169e-10
3.86528e-11
-4.24317e-10
5.1938e-11
-4.87166e-10
6.70303e-11
-5.47095e-10
8.38481e-11
-6.04309e-10
1.02317e-10
-6.58925e-10
1.22369e-10
-7.11014e-10
1.43949e-10
-7.60624e-10
1.67009e-10
-8.07799e-10
1.9151e-10
-8.52584e-10
2.17426e-10
-8.95034e-10
2.44734e-10
-9.35217e-10
2.73422e-10
-9.73215e-10
3.03479e-10
-1.00913e-09
3.34895e-10
-1.04307e-09
3.67656e-10
-1.07516e-09
4.01737e-10
-1.10556e-09
4.37098e-10
-1.13443e-09
4.73671e-10
-1.16195e-09
5.11358e-10
-1.18831e-09
-1.21372e-09
5.50011e-10
1.64239e-12
-4.13954e-11
4.90988e-12
-1.31895e-10
1.00161e-11
-2.17345e-10
1.70974e-11
-2.95055e-10
2.61488e-11
-3.6722e-10
3.71086e-11
-4.35277e-10
4.98951e-11
-4.99952e-10
6.44224e-11
-5.61623e-10
8.06072e-11
-6.20494e-10
9.8371e-11
-6.76689e-10
1.17642e-10
-7.30285e-10
1.38356e-10
-7.81339e-10
1.60457e-10
-8.299e-10
1.83894e-10
-8.76021e-10
2.08625e-10