/*--------------------------------*- C++ -*----------------------------------*\
  =========                 |
  \\      /  F ield         | OpenFOAM: The Open Source CFD Toolbox
   \\    /   O peration     | Website:  https://openfoam.org
    \\  /    A nd           | Version:  13
     \\/     M anipulation  |
\*---------------------------------------------------------------------------*/
FoamFile
{
    format      ascii;
    class       volVectorField;
    location    "9";
    object      U;
}
// * * * * * * * * * * * * * * * * * * * * * * * * * * * * * * * * * * * * * //

dimensions      [0 1 -1 0 0 0 0];

internalField   nonuniform List<vector> 
6440
(
(-6.28917e-07 1.21165e-06 0)
(-1.54055e-06 1.95824e-06 0)
(-2.8742e-06 1.86904e-06 -4.24766e-20)
(-3.69895e-06 1.91095e-06 4.23384e-20)
(-4.29646e-06 2.14968e-06 0)
(-4.59543e-06 2.43782e-06 -8.39046e-20)
(-4.58137e-06 2.71258e-06 8.33681e-20)
(-4.22203e-06 2.92063e-06 0)
(-3.48934e-06 3.00995e-06 1.64044e-19)
(-2.38225e-06 2.93494e-06 -1.62511e-19)
(-9.05275e-07 2.65094e-06 -1.60587e-19)
(9.35846e-07 2.10827e-06 2.06913e-22)
(3.01086e-06 1.30162e-06 2.60646e-22)
(5.13486e-06 2.93384e-07 1.54395e-19)
(7.21621e-06 -8.6818e-07 1.51626e-19)
(9.15636e-06 -2.13896e-06 -1.49432e-19)
(1.08124e-05 -3.45565e-06 0)
(1.20804e-05 -4.78219e-06 2.87344e-19)
(1.28957e-05 -6.04444e-06 -7.81862e-22)
(1.32411e-05 -7.12842e-06 -2.76972e-19)
(1.3101e-05 -7.81282e-06 2.70591e-19)
(1.23502e-05 -7.62669e-06 -5.30599e-19)
(1.25633e-05 -6.69833e-06 2.59976e-19)
(1.00931e-05 -2.02305e-06 -2.53766e-19)
(2.95432e-06 3.31217e-06 1.89897e-22)
(-6.57915e-07 3.24792e-06 0)
(-1.51473e-06 4.92788e-06 0)
(-2.69477e-06 4.37449e-06 -4.54203e-20)
(-3.48632e-06 4.10448e-06 4.52729e-20)
(-4.216e-06 4.24176e-06 0)
(-4.78084e-06 4.45032e-06 -8.97728e-20)
(-5.18075e-06 4.62725e-06 8.92e-20)
(-5.3902e-06 4.72023e-06 0)
(-5.36953e-06 4.68109e-06 0)
(-5.07909e-06 4.47321e-06 0)
(-4.49005e-06 4.07087e-06 0)
(-3.5959e-06 3.45309e-06 -1.70131e-19)
(-2.4168e-06 2.60306e-06 1.68084e-19)
(-9.71366e-07 1.54723e-06 0)
(7.1126e-07 3.38913e-07 1.62858e-19)
(2.51888e-06 -9.25358e-07 -1.60509e-19)
(4.18137e-06 -2.0709e-06 0)
(5.5129e-06 -3.07441e-06 0)
(6.48925e-06 -3.94941e-06 3.02249e-19)
(7.10005e-06 -4.66124e-06 -2.97075e-19)
(7.31269e-06 -5.08133e-06 2.89502e-19)
(6.7982e-06 -4.61168e-06 -2.84222e-19)
(8.18092e-06 -3.91208e-06 -2.76587e-19)
(9.18301e-06 3.69995e-08 1.02799e-21)
(1.09654e-06 8.37673e-06 1.95396e-19)
(-7.28259e-07 5.31987e-06 0)
(-1.81494e-06 7.42477e-06 0)
(-3.04649e-06 6.33508e-06 -4.59373e-20)
(-3.90566e-06 5.83669e-06 4.57961e-20)
(-4.81103e-06 5.92638e-06 0)
(-5.59235e-06 6.10457e-06 -9.09223e-20)
(-6.19578e-06 6.18882e-06 1.80808e-19)
(-6.60826e-06 6.13635e-06 -8.98016e-20)
(-6.78429e-06 5.92093e-06 1.7839e-19)
(-6.65375e-06 5.50504e-06 -1.76807e-19)
(-6.15928e-06 4.86662e-06 -1.75154e-19)
(-5.26126e-06 3.99194e-06 5.14676e-23)
(-3.94162e-06 2.8787e-06 1.71258e-19)
(-2.18413e-06 1.52503e-06 1.68821e-19)
(3.63083e-08 -6.76293e-08 -3.07903e-22)
(2.66828e-06 -1.84022e-06 -1.64027e-19)
(5.26313e-06 -3.50951e-06 0)
(7.4593e-06 -4.98319e-06 3.15462e-19)
(9.28977e-06 -6.33024e-06 -3.10489e-19)
(1.07052e-05 -7.61418e-06 0)
(1.14933e-05 -8.74957e-06 2.95975e-19)
(1.09006e-05 -9.07544e-06 -5.80031e-19)
(1.09859e-05 -9.31895e-06 2.84028e-19)
(1.10638e-05 -7.31655e-06 -2.75986e-19)
(1.86318e-07 4.07485e-06 2.01821e-19)
(-8.38738e-07 7.7275e-06 0)
(-2.19076e-06 9.89069e-06 0)
(-3.51354e-06 8.23455e-06 -4.62302e-20)
(-4.46023e-06 7.60826e-06 4.60955e-20)
(-5.4649e-06 7.7243e-06 0)
(-6.41966e-06 7.9818e-06 -9.1626e-20)
(-7.23581e-06 8.15711e-06 1.82295e-19)
(-7.79458e-06 8.14997e-06 -9.0588e-20)
(-8.08414e-06 7.98403e-06 0)
(-8.04952e-06 7.65105e-06 0)
(-7.59986e-06 7.12015e-06 0)
(-6.66632e-06 6.36831e-06 -1.75447e-19)
(-5.20258e-06 5.37195e-06 1.73536e-19)
(-3.16121e-06 4.09337e-06 1.71283e-19)
(-4.63647e-07 2.46309e-06 -1.69159e-19)
(2.9356e-06 4.49833e-07 0)
(6.4679e-06 -1.68798e-06 3.26885e-19)
(9.61737e-06 -3.73805e-06 -3.22168e-19)
(1.23045e-05 -5.72921e-06 0)
(1.43713e-05 -7.7348e-06 0)
(1.56651e-05 -9.81786e-06 0)
(1.5228e-05 -1.13144e-05 0)
(1.428e-05 -1.26423e-05 0)
(1.37592e-05 -1.25658e-05 -2.80797e-19)
(1.98407e-07 1.0225e-06 5.20687e-22)
(-9.16697e-07 1.04765e-05 0)
(-2.4994e-06 1.24123e-05 0)
(-3.87311e-06 1.01879e-05 -4.63194e-20)
(-4.91305e-06 9.51194e-06 4.61916e-20)
(-5.99935e-06 9.69618e-06 0)
(-7.01898e-06 1.0006e-05 -9.19211e-20)
(-8.00079e-06 1.02713e-05 1.82965e-19)
(-8.76692e-06 1.0373e-05 -9.09665e-20)
(-9.19563e-06 1.02856e-05 0)
(-9.29287e-06 1.00612e-05 0)
(-8.97786e-06 9.68348e-06 0)
(-8.14389e-06 9.11596e-06 -1.76832e-19)
(-6.71082e-06 8.30945e-06 1.75002e-19)
(-4.6141e-06 7.20068e-06 1.72947e-19)
(-1.71722e-06 5.6529e-06 -1.70905e-19)
(2.07137e-06 3.5419e-06 0)
(6.24614e-06 1.01586e-06 3.30825e-19)
(1.02409e-05 -1.60724e-06 -3.26273e-19)
(1.38038e-05 -4.35315e-06 0)
(1.66089e-05 -7.10495e-06 0)
(1.84096e-05 -9.89824e-06 0)
(1.82728e-05 -1.22036e-05 0)
(1.69066e-05 -1.42888e-05 0)
(1.63707e-05 -1.57304e-05 -2.8469e-19)
(4.76593e-07 -8.35824e-07 2.12878e-19)
(-9.52367e-07 1.34261e-05 0)
(-2.7296e-06 1.492e-05 0)
(-4.12372e-06 1.2182e-05 -4.62274e-20)
(-5.2463e-06 1.15133e-05 4.61065e-20)
(-6.42114e-06 1.17909e-05 0)
(-7.51944e-06 1.21537e-05 -9.18524e-20)
(-8.57919e-06 1.24394e-05 1.82907e-19)
(-9.50913e-06 1.26098e-05 -9.09815e-20)
(-1.01386e-05 1.25802e-05 1.81342e-19)
(-1.04081e-05 1.24264e-05 -1.79966e-19)
(-1.02834e-05 1.21706e-05 0)
(-9.65257e-06 1.17654e-05 -1.77497e-19)
(-8.40266e-06 1.11419e-05 -6.59391e-23)
(-6.44108e-06 1.02054e-05 3.47883e-19)
(-3.62368e-06 8.80123e-06 -1.71963e-19)
(2.11775e-07 6.68305e-06 0)
(4.79124e-06 3.86563e-06 3.33536e-19)
(9.41659e-06 7.6447e-07 -1.33431e-21)
(1.37485e-05 -2.62956e-06 -1.63604e-21)
(1.74573e-05 -6.16713e-06 -3.17119e-19)
(2.00309e-05 -9.64729e-06 0)
(2.04645e-05 -1.25513e-05 0)
(1.90922e-05 -1.50727e-05 0)
(1.8838e-05 -1.76641e-05 -2.87715e-19)
(8.73715e-07 -1.89623e-06 2.17485e-19)
(-9.60635e-07 1.64573e-05 0)
(-2.9031e-06 1.73581e-05 0)
(-4.30429e-06 1.42026e-05 -4.59769e-20)
(-5.5064e-06 1.35961e-05 4.5863e-20)
(-6.75423e-06 1.39694e-05 9.16776e-20)
(-7.91061e-06 1.4381e-05 -1.82765e-19)
(-9.01132e-06 1.46536e-05 1.82209e-19)
(-1.00652e-05 1.48014e-05 -9.06752e-20)
(-1.08637e-05 1.4795e-05 0)
(-1.1272e-05 1.46738e-05 1.79964e-19)
(-1.13314e-05 1.44909e-05 -1.78537e-19)
(-1.09421e-05 1.4216e-05 -1.77527e-19)
(-9.96454e-06 1.37697e-05 1.75869e-19)
(-8.2721e-06 1.30277e-05 1.74275e-19)
(-5.74181e-06 1.18323e-05 -1.72412e-19)
(-2.14716e-06 9.88525e-06 0)
(2.5538e-06 6.96063e-06 3.35171e-19)
(7.66703e-06 3.42745e-06 -3.30978e-19)
(1.26968e-05 -4.56045e-07 0)
(1.73456e-05 -4.72922e-06 3.17405e-19)
(2.09052e-05 -8.93767e-06 -3.12929e-19)
(2.2148e-05 -1.24067e-05 0)
(2.09782e-05 -1.51651e-05 0)
(2.1092e-05 -1.86444e-05 -2.89921e-19)
(1.25868e-06 -2.28961e-06 7.57005e-22)
(-9.53526e-07 1.94886e-05 0)
(-3.02983e-06 1.97031e-05 0)
(-4.42948e-06 1.62445e-05 -4.55895e-20)
(-5.69869e-06 1.57482e-05 4.54826e-20)
(-6.99207e-06 1.62192e-05 0)
(-8.18832e-06 1.66645e-05 -9.07967e-20)
(-9.3137e-06 1.68999e-05 9.03751e-20)
(-1.03692e-05 1.69614e-05 0)
(-1.12016e-05 1.69138e-05 0)
(-1.17024e-05 1.67471e-05 0)
(-1.18959e-05 1.65639e-05 0)
(-1.16996e-05 1.63661e-05 -1.76995e-19)
(-1.09906e-05 1.60795e-05 1.75425e-19)
(-9.62764e-06 1.5567e-05 0)
(-7.46719e-06 1.46431e-05 0)
(-4.3109e-06 1.30434e-05 0)
(1.0438e-07 1.03404e-05 0)
(5.49868e-06 6.533e-06 0)
(1.11134e-05 2.23931e-06 3.24954e-19)
(1.65791e-05 -2.60682e-06 -3.20741e-19)
(2.12724e-05 -7.62582e-06 0)
(2.35634e-05 -1.17824e-05 0)
(2.26746e-05 -1.47468e-05 0)
(2.31303e-05 -1.89414e-05 -2.91374e-19)
(1.60073e-06 -2.2178e-06 2.24901e-19)
(-9.37492e-07 2.24544e-05 0)
(-3.10856e-06 2.19348e-05 0)
(-4.49272e-06 1.8284e-05 -4.50854e-20)
(-5.79959e-06 1.79311e-05 4.49852e-20)
(-7.09601e-06 1.84957e-05 0)
(-8.27175e-06 1.89502e-05 -8.98898e-20)
(-9.34304e-06 1.9118e-05 1.79213e-19)
(-1.0298e-05 1.90544e-05 -8.92608e-20)
(-1.10889e-05 1.88736e-05 0)
(-1.15865e-05 1.85651e-05 0)
(-1.17581e-05 1.82876e-05 1.76957e-19)
(-1.16183e-05 1.80916e-05 -3.51545e-19)
(-1.10817e-05 1.79248e-05 1.74485e-19)
(-1.00163e-05 1.76616e-05 1.73418e-19)
(-8.25245e-06 1.70956e-05 -1.71741e-19)
(-5.62591e-06 1.5975e-05 0)
(-1.83462e-06 1.38762e-05 -3.35626e-19)
(3.42175e-06 1.02921e-05 3.31809e-19)
(9.47854e-06 5.56101e-06 0)
(1.56331e-05 3.1126e-07 0)
(2.13676e-05 -5.46396e-06 0)
(2.47796e-05 -1.04358e-05 3.06024e-19)
(2.42458e-05 -1.37087e-05 -3.01822e-19)
(2.5106e-05 -1.85852e-05 -2.92156e-19)
(1.958e-06 -1.78624e-06 2.27771e-19)
(-9.13434e-07 2.5291e-05 0)
(-3.12726e-06 2.40201e-05 0)
(-4.46742e-06 2.02699e-05 0)
(-5.76125e-06 2.0077e-05 0)
(-6.99833e-06 2.07262e-05 0)
(-8.08071e-06 2.11694e-05 0)
(-9.01085e-06 2.12349e-05 0)
(-9.77378e-06 2.09892e-05 0)
(-1.04046e-05 2.0583e-05 -1.76547e-19)
(-1.07335e-05 2.00726e-05 1.7546e-19)
(-1.0694e-05 1.96084e-05 0)
(-1.0418e-05 1.93093e-05 0)
(-9.87437e-06 1.91805e-05 0)
(-8.96548e-06 1.91392e-05 0)
(-7.53627e-06 1.89951e-05 0)
(-5.38897e-06 1.8464e-05 0)
(-2.29131e-06 1.71848e-05 0)
(2.11203e-06 1.45696e-05 -3.3015e-19)
(8.13392e-06 1.00236e-05 3.26404e-19)
(1.49227e-05 4.2505e-06 0)
(2.1485e-05 -2.05391e-06 -3.13049e-19)
(2.60677e-05 -7.87106e-06 3.09079e-19)
(2.61452e-05 -1.16571e-05 0)
(2.74145e-05 -1.73483e-05 0)
(2.43476e-06 -1.01962e-06 0)
(-8.77598e-07 2.79275e-05 0)
(-3.06407e-06 2.59006e-05 0)
(-4.30739e-06 2.21136e-05 0)
(-5.5085e-06 2.20758e-05 0)
(-6.5964e-06 2.27943e-05 0)
(-7.48812e-06 2.32125e-05 0)
(-8.18513e-06 2.31659e-05 8.74066e-20)
(-8.66969e-06 2.27267e-05 -8.70037e-20)
(-8.98101e-06 2.20633e-05 -1.74265e-19)
(-8.95201e-06 2.13078e-05 1.73246e-19)
(-8.53029e-06 2.05542e-05 1.7332e-19)
(-7.89829e-06 2.0019e-05 -1.72098e-19)
(-7.09273e-06 1.9793e-05 0)
(-6.09155e-06 1.98755e-05 1.70813e-19)
(-4.80529e-06 2.01421e-05 2.78245e-22)
(-3.05254e-06 2.03192e-05 -1.68017e-19)
(-5.96554e-07 2.00075e-05 0)
(2.87964e-06 1.86597e-05 -3.28803e-19)
(7.93524e-06 1.54543e-05 3.25241e-19)
(1.47998e-05 9.78468e-06 0)
(2.23325e-05 2.75267e-06 0)
(2.80068e-05 -4.01677e-06 3.05937e-19)
(2.87232e-05 -8.63033e-06 -3.02112e-19)
(2.99796e-05 -1.55214e-05 0)
(2.85321e-06 -1.35026e-07 0)
(-8.23378e-07 3.02819e-05 0)
(-2.89183e-06 2.74874e-05 0)
(-3.95534e-06 2.36857e-05 0)
(-4.94965e-06 2.37697e-05 0)
(-5.76338e-06 2.45304e-05 0)
(-6.33422e-06 2.49129e-05 0)
(-6.66776e-06 2.47623e-05 0)
(-6.74547e-06 2.41632e-05 0)
(-6.58321e-06 2.3294e-05 0)
(-6.07723e-06 2.23254e-05 0)
(-5.13931e-06 2.12346e-05 -1.70963e-19)
(-3.91139e-06 2.03415e-05 1.69816e-19)
(-2.54318e-06 1.98577e-05 0)
(-1.10594e-06 1.98813e-05 0)
(3.76305e-07 2.04156e-05 0)
(1.98797e-06 2.12803e-05 0)
(3.92764e-06 2.20853e-05 0)
(6.51673e-06 2.22345e-05 0)
(1.03242e-05 2.08725e-05 0)
(1.61923e-05 1.67949e-05 0)
(2.38717e-05 9.63106e-06 0)
(3.05598e-05 1.60042e-06 -3.05207e-19)
(3.16346e-05 -4.21325e-06 3.01567e-19)
(3.26433e-05 -1.29682e-05 0)
(3.36018e-06 7.48123e-07 0)
(-7.42795e-07 3.22609e-05 0)
(-2.5823e-06 2.86638e-05 0)
(-3.35084e-06 2.48195e-05 0)
(-3.98757e-06 2.49555e-05 0)
(-4.36069e-06 2.57085e-05 8.45096e-20)
(-4.43648e-06 2.60372e-05 -8.42551e-20)
(-4.22924e-06 2.58006e-05 0)
(-3.71828e-06 2.5093e-05 0)
(-2.90464e-06 2.40885e-05 -1.68755e-19)
(-1.83911e-06 2.30005e-05 3.36425e-19)
(-3.24488e-07 2.17578e-05 7.12172e-22)
(1.68519e-06 2.04492e-05 -1.67214e-19)
(3.89005e-06 1.95186e-05 0)
(6.11689e-06 1.926e-05 0)
(8.22652e-06 1.98267e-05 1.65939e-19)
(1.01317e-05 2.12271e-05 -1.64541e-19)
(1.18926e-05 2.31998e-05 -3.27279e-19)
(1.37921e-05 2.51474e-05 2.31294e-23)
(1.64303e-05 2.60904e-05 3.20962e-19)
(2.06054e-05 2.46281e-05 3.15851e-19)
(2.70972e-05 1.90674e-05 -3.12471e-19)
(3.40833e-05 1.02064e-05 3.04139e-19)
(3.54085e-05 2.63821e-06 -3.00677e-19)
(3.60992e-05 -9.01733e-06 0)
(4.28666e-06 1.48689e-06 0)
(-6.28511e-07 3.37645e-05 0)
(-2.1131e-06 2.92941e-05 0)
(-2.44266e-06 2.53239e-05 0)
(-2.5376e-06 2.53971e-05 0)
(-2.2627e-06 2.60571e-05 0)
(-1.62167e-06 2.62895e-05 0)
(-6.49406e-07 2.59733e-05 0)
(6.55094e-07 2.52037e-05 0)
(2.30505e-06 2.41107e-05 -1.65599e-19)
(4.17995e-06 2.29072e-05 1.64762e-19)
(6.28623e-06 2.17211e-05 0)
(8.95929e-06 2.03792e-05 0)
(1.22061e-05 1.91429e-05 0)
(1.56383e-05 1.85598e-05 0)
(1.89198e-05 1.89672e-05 0)
(2.17842e-05 2.0592e-05 0)
(2.4057e-05 2.3459e-05 0)
(2.58115e-05 2.71885e-05 -3.20948e-19)
(2.7457e-05 3.08281e-05 3.17914e-19)
(2.975e-05 3.26829e-05 0)
(3.38289e-05 3.04948e-05 0)
(3.9576e-05 2.26213e-05 0)
(4.04313e-05 1.26966e-05 0)
(4.01622e-05 -3.22742e-06 0)
(5.4317e-06 1.95884e-06 0)
(-4.75946e-07 3.47006e-05 0)
(-1.47327e-06 2.92576e-05 0)
(-1.19945e-06 2.50315e-05 0)
(-5.45838e-07 2.48898e-05 0)
(6.15623e-07 2.53343e-05 0)
(2.23461e-06 2.53589e-05 0)
(4.22782e-06 2.48721e-05 0)
(6.52744e-06 2.4001e-05 0)
(9.151e-06 2.2897e-05 0)
(1.20559e-05 2.17276e-05 0)
(1.51534e-05 2.07408e-05 1.62068e-19)
(1.86963e-05 1.99374e-05 -1.61125e-19)
(2.30024e-05 1.9055e-05 0)
(2.78058e-05 1.84421e-05 0)
(3.25835e-05 1.87381e-05 1.6096e-19)
(3.69567e-05 2.0353e-05 -1.5973e-19)
(4.05432e-05 2.3626e-05 -3.19188e-19)
(4.30552e-05 2.86101e-05 3.16437e-19)
(4.44381e-05 3.47123e-05 0)
(4.52085e-05 4.02559e-05 0)
(4.64876e-05 4.25878e-05 0)
(4.8505e-05 3.83884e-05 3.01279e-19)
(4.67517e-05 2.74735e-05 -5.93022e-19)
(4.52475e-05 4.96306e-06 2.91729e-19)
(7.1101e-06 1.93832e-06 0)
(-2.81742e-07 3.49886e-05 0)
(-6.51233e-07 2.84461e-05 0)
(4.04531e-07 2.3761e-05 0)
(2.02025e-06 2.31679e-05 0)
(4.27626e-06 2.31895e-05 0)
(7.07228e-06 2.28751e-05 0)
(1.03201e-05 2.21419e-05 -7.93457e-20)
(1.39355e-05 2.11425e-05 7.90569e-20)
(1.79176e-05 2.01111e-05 -1.58659e-19)
(2.2246e-05 1.92462e-05 1.57925e-19)
(2.68455e-05 1.87502e-05 -1.58565e-19)
(3.16429e-05 1.87849e-05 1.57682e-19)
(3.6916e-05 1.90989e-05 0)
(4.29783e-05 1.9283e-05 -1.58198e-19)
(4.94555e-05 1.99167e-05 1.57109e-19)
(5.57659e-05 2.16945e-05 0)
(6.14155e-05 2.50922e-05 0)
(6.57708e-05 3.05566e-05 -3.12667e-19)
(6.81529e-05 3.82008e-05 -7.22903e-22)
(6.85585e-05 4.70396e-05 3.07871e-19)
(6.7194e-05 5.44813e-05 0)
(6.41029e-05 5.56464e-05 -2.99611e-19)
(5.67071e-05 4.71531e-05 2.96632e-19)
(5.17563e-05 1.67785e-05 0)
(9.56102e-06 1.00039e-06 -2.36732e-19)
(-5.62324e-08 3.45627e-05 0)
(3.19473e-07 2.67211e-05 0)
(2.28061e-06 2.12786e-05 0)
(5.03215e-06 1.99591e-05 0)
(8.64789e-06 1.93192e-05 0)
(1.29457e-05 1.84659e-05 0)
(1.77706e-05 1.73221e-05 0)
(2.30662e-05 1.6109e-05 0)
(2.88679e-05 1.51632e-05 0)
(3.50885e-05 1.46827e-05 0)
(4.15799e-05 1.48645e-05 0)
(4.82425e-05 1.58726e-05 0)
(5.49614e-05 1.78573e-05 0)
(6.22055e-05 2.03259e-05 0)
(7.03195e-05 2.27058e-05 0)
(7.87322e-05 2.56626e-05 0)
(8.67865e-05 2.98554e-05 0)
(9.38252e-05 3.57697e-05 0)
(9.8918e-05 4.38384e-05 0)
(0.000100946 5.40914e-05 0)
(9.81184e-05 6.50948e-05 0)
(9.00537e-05 7.2948e-05 0)
(7.38578e-05 7.07266e-05 0)
(6.15459e-05 3.26307e-05 0)
(1.35783e-05 -2.84293e-06 0)
(1.73887e-07 3.33912e-05 1.67624e-20)
(1.36169e-06 2.39525e-05 1.89601e-20)
(4.36977e-06 1.74104e-05 -3.78632e-20)
(8.48516e-06 1.50316e-05 7.57751e-20)
(1.36629e-05 1.3417e-05 -7.56266e-20)
(1.96497e-05 1.16362e-05 0)
(2.63298e-05 9.72514e-06 7.56751e-20)
(3.37758e-05 8.03684e-06 7.58328e-20)
(4.19105e-05 6.86706e-06 -3.01824e-19)
(5.0517e-05 6.46067e-06 1.50503e-19)
(5.94849e-05 7.08948e-06 1.50927e-19)
(6.8724e-05 9.01494e-06 -1.50154e-19)
(7.80522e-05 1.25011e-05 -1.50741e-19)
(8.72595e-05 1.77634e-05 3.00526e-19)
(9.69162e-05 2.39796e-05 9.14367e-22)
(0.000107417 3.03313e-05 1.51589e-19)
(0.000118126 3.72954e-05 -2.99096e-19)
(0.000128202 4.55422e-05 -3.00964e-19)
(0.000136595 5.51781e-05 5.99074e-19)
(0.000141478 6.63406e-05 -2.98001e-19)
(0.000140971 7.79267e-05 0)
(0.000131672 8.87073e-05 2.95893e-19)
(0.000104113 9.36432e-05 -5.85428e-19)
(7.74977e-05 4.80689e-05 2.89535e-19)
(2.01027e-05 -1.27634e-05 2.40859e-19)
(3.73908e-07 3.15115e-05 0)
(2.41939e-06 2.01545e-05 0)
(6.56487e-06 1.21463e-05 0)
(1.2136e-05 8.31769e-06 0)
(1.89339e-05 5.33038e-06 0)
(2.67726e-05 2.43018e-06 0)
(3.57121e-05 -3.18728e-07 0)
(4.56671e-05 -2.67608e-06 0)
(5.64459e-05 -4.42438e-06 0)
(6.79351e-05 -5.264e-06 0)
(8.00602e-05 -4.86975e-06 0)
(9.27191e-05 -2.8991e-06 0)
(0.000105726 1.04974e-06 0)
(0.000118761 7.52908e-06 0)
(0.000131495 1.7087e-05 0)
(0.000144452 2.8921e-05 0)
(0.000158254 4.17173e-05 0)
(0.000171975 5.50116e-05 0)
(0.000184085 6.96525e-05 -2.93472e-19)
(0.000192682 8.59332e-05 2.91069e-19)
(0.00019566 0.000102845 0)
(0.0001883 0.000117783 0)
(0.000151582 0.000131675 0)
(0.000115261 7.53777e-05 0)
(5.29718e-05 -3.92165e-05 0)
(5.12122e-07 2.90244e-05 0)
(3.44477e-06 1.53471e-05 0)
(8.74396e-06 5.3861e-06 0)
(1.57913e-05 -2.91951e-07 0)
(2.44642e-05 -4.9546e-06 0)
(3.4602e-05 -9.35162e-06 0)
(4.59836e-05 -1.34699e-05 0)
(5.84859e-05 -1.7153e-05 0)
(7.20351e-05 -2.01053e-05 0)
(8.65688e-05 -2.19833e-05 0)
(0.000102053 -2.24189e-05 -1.42996e-19)
(0.000118473 -2.10231e-05 1.42318e-19)
(0.000135826 -1.73366e-05 0)
(0.000154065 -1.07688e-05 0)
(0.000172861 -4.49937e-07 0)
(0.000191449 1.48139e-05 0)
(0.00020938 3.54639e-05 0)
(0.000227594 6.07846e-05 0)
(0.000246033 9.03518e-05 0)
(0.000262139 0.000125021 0)
(0.000272429 0.000166704 0)
(0.000273274 0.000214388 -2.89901e-19)
(0.000241954 0.000268363 2.87222e-19)
(0.000212268 0.000243627 0)
(0.000234155 -0.000102666 0)
(6.24169e-07 2.64123e-05 0)
(4.23053e-06 1.00957e-05 0)
(1.04289e-05 -2.26455e-06 0)
(1.88025e-05 -1.01694e-05 0)
(2.903e-05 -1.68666e-05 0)
(4.0893e-05 -2.33444e-05 0)
(5.42236e-05 -2.96601e-05 0)
(6.89227e-05 -3.55643e-05 0)
(8.49403e-05 -4.07471e-05 0)
(0.000102251 -4.48676e-05 0)
(0.000120854 -4.75693e-05 0)
(0.000140773 -4.84743e-05 0)
(0.000162056 -4.71922e-05 0)
(0.00018475 -4.33087e-05 0)
(0.000208934 -3.63056e-05 0)
(0.000234787 -2.52939e-05 0)
(0.000262356 -8.97115e-06 0)
(0.000291055 1.36843e-05 0)
(0.000320336 4.25972e-05 0)
(0.000351121 7.8759e-05 0)
(0.00038568 0.000123378 0)
(0.000425302 0.00017444 0)
(0.000469722 0.000216697 0)
(0.000484308 0.000202868 0)
(0.000204478 -0.000192477 0)
(6.45513e-07 2.38984e-05 0)
(4.60847e-06 4.81199e-06 0)
(1.14061e-05 -1.00912e-05 0)
(2.06301e-05 -2.02655e-05 0)
(3.1884e-05 -2.90567e-05 0)
(4.49362e-05 -3.75123e-05 0)
(5.96479e-05 -4.57569e-05 0)
(7.59409e-05 -5.36022e-05 0)
(9.37806e-05 -6.07751e-05 0)
(0.000113164 -6.69731e-05 0)
(0.000134123 -7.18685e-05 0)
(0.000156717 -7.51065e-05 0)
(0.00018104 -7.62994e-05 0)
(0.000207214 -7.50311e-05 0)
(0.000235431 -7.08244e-05 0)
(0.00026598 -6.31804e-05 0)
(0.000299209 -5.16359e-05 0)
(0.00033549 -3.55988e-05 0)
(0.000375689 -1.37415e-05 0)
(0.000420839 1.56278e-05 0)
(0.00047195 5.30837e-05 0)
(0.000531256 9.62153e-05 0)
(0.000599145 0.000136584 0)
(0.000673869 0.000149948 0)
(0.000741483 0.000105034 0)
(6.75283e-07 2.12245e-05 0)
(4.89234e-06 -8.76014e-07 0)
(1.21661e-05 -1.85063e-05 0)
(2.20609e-05 -3.10502e-05 0)
(3.41541e-05 -4.19473e-05 0)
(4.82069e-05 -5.23373e-05 0)
(6.40877e-05 -6.24193e-05 0)
(8.17237e-05 -7.2067e-05 0)
(0.000101085 -8.10544e-05 0)
(0.000122181 -8.91171e-05 0)
(0.000145056 -9.59666e-05 0)
(0.000169791 -0.000101287 0)
(0.000196503 -0.000104735 0)
(0.000225355 -0.00010593 0)
(0.000256567 -0.000104458 0)
(0.00029045 -9.98919e-05 0)
(0.000327395 -9.18189e-05 0)
(0.000367931 -7.97924e-05 0)
(0.000412845 -6.32252e-05 0)
(0.000462933 -4.16364e-05 0)
(0.000518991 -1.4304e-05 0)
(0.000582051 1.9267e-05 0)
(0.000652626 5.73215e-05 0)
(0.000729781 9.74562e-05 0)
(0.000796558 0.000138067 0)
(7.01177e-07 1.84455e-05 0)
(5.0923e-06 -6.85719e-06 0)
(1.27182e-05 -2.73791e-05 0)
(2.31214e-05 -4.24234e-05 0)
(3.58683e-05 -5.5528e-05 0)
(5.07155e-05 -6.79444e-05 0)
(6.75284e-05 -7.99531e-05 0)
(8.62305e-05 -9.14877e-05 0)
(0.000106791 -0.000102365 0)
(0.000129215 -0.000112358 0)
(0.000153542 -0.000121215 0)
(0.000179844 -0.000128661 0)
(0.00020823 -0.000134398 0)
(0.000238845 -0.000138105 0)
(0.000271881 -0.000139435 0)
(0.000307582 -0.000138025 0)
(0.000346232 -0.000133509 0)
(0.000388142 -0.000125487 0)
(0.000433652 -0.000113525 0)
(0.000482986 -9.70842e-05 0)
(0.000536177 -7.51513e-05 0)
(0.000592957 -4.61208e-05 0)
(0.000652326 -7.85346e-06 0)
(0.000710909 4.3125e-05 0)
(0.000755031 0.000113332 0)
(7.25014e-07 1.55811e-05 0)
(5.23528e-06 -1.30619e-05 0)
(1.31137e-05 -3.65936e-05 0)
(2.38881e-05 -5.4242e-05 0)
(3.71254e-05 -6.96434e-05 0)
(5.25768e-05 -8.41636e-05 0)
(7.01021e-05 -9.8164e-05 0)
(8.96185e-05 -0.000111634 0)
(0.000111084 -0.000124431 0)
(0.00013449 -0.000136362 0)
(0.000159858 -0.000147204 0)
(0.000187233 -0.000156713 0)
(0.000216686 -0.000164625 0)
(0.000248311 -0.000170653 0)
(0.000282224 -0.000174486 0)
(0.000318556 -0.000175784 0)
(0.000357422 -0.000174173 0)
(0.000398884 -0.000169198 0)
(0.000442888 -0.000160251 0)
(0.000489159 -0.000146422 0)
(0.000537108 -0.00012615 0)
(0.00058574 -9.68795e-05 0)
(0.000633385 -5.45958e-05 0)
(0.000676639 6.74954e-06 0)
(0.000707115 9.67391e-05 0)
(7.45487e-07 1.26578e-05 0)
(5.32547e-06 -1.94246e-05 0)
(1.3361e-05 -4.60609e-05 0)
(2.43785e-05 -6.64147e-05 0)
(3.79502e-05 -8.4215e-05 0)
(5.38258e-05 -0.000100936 0)
(7.18585e-05 -0.000117017 0)
(9.19538e-05 -0.000132499 0)
(0.000114056 -0.000147276 0)
(0.000138136 -0.000161181 0)
(0.000164187 -0.000174016 0)
(0.00019222 -0.000185556 0)
(0.000222256 -0.000195551 0)
(0.000254325 -0.000203727 0)
(0.000288454 -0.000209773 0)
(0.000324656 -0.000213328 0)
(0.000362893 -0.000213949 0)
(0.000403034 -0.000211056 0)
(0.000444796 -0.000203813 0)
(0.000487661 -0.000190946 0)
(0.000530831 -0.00017044 0)
(0.000573225 -0.000139176 0)
(0.000613431 -9.25395e-05 0)
(0.000649374 -2.3971e-05 0)
(0.00067795 7.60462e-05 0)
(7.62444e-07 9.70113e-06 0)
(5.36539e-06 -2.58739e-05 0)
(1.34714e-05 -5.56745e-05 0)
(2.46127e-05 -7.88081e-05 0)
(3.83768e-05 -9.90855e-05 0)
(5.45125e-05 -0.000118082 0)
(7.28662e-05 -0.000136308 0)
(9.3332e-05 -0.000153852 0)
(0.000115835 -0.000170639 0)
(0.000140326 -0.000186524 0)
(0.000166768 -0.000201321 0)
(0.000195134 -0.000214814 0)
(0.000225398 -0.000226757 0)
(0.00025753 -0.000236867 0)
(0.000291482 -0.000244812 0)
(0.000327172 -0.000250183 0)
(0.000364463 -0.000252451 0)
(0.000403121 -0.000250896 0)
(0.000442783 -0.000244487 0)
(0.00048292 -0.000231707 0)
(0.000522853 -0.000210301 0)
(0.000561823 -0.000177019 0)
(0.00059912 -0.000127377 0)
(0.000634283 -5.54316e-05 0)
(0.000667694 4.66611e-05 0)
(7.7595e-07 6.73506e-06 0)
(5.36069e-06 -3.2343e-05 0)
(1.34583e-05 -6.53354e-05 0)
(2.46195e-05 -9.12975e-05 0)
(3.84495e-05 -0.000114109 0)
(5.47007e-05 -0.000135435 0)
(7.32137e-05 -0.000155851 0)
(9.38693e-05 -0.000175487 0)
(0.000116578 -0.000194293 0)
(0.000141265 -0.000212139 0)
(0.000167871 -0.000228848 0)
(0.000196334 -0.000244203 0)
(0.00022659 -0.000257952 0)
(0.000258563 -0.000269796 0)
(0.000292154 -0.00027937 0)
(0.000327229 -0.000286213 0)
(0.000363604 -0.000289722 0)
(0.000401027 -0.000289074 0)
(0.000439169 -0.000283119 0)
(0.000477636 -0.000270236 0)
(0.000516026 -0.000248155 0)
(0.000554061 -0.000213803 0)
(0.000591799 -0.00016322 0)
(0.000629998 -9.15478e-05 0)
(0.000670839 6.87617e-06 0)
(7.86265e-07 3.78037e-06 0)
(5.31686e-06 -3.87739e-05 0)
(1.33405e-05 -7.49577e-05 0)
(2.44311e-05 -0.000103776 0)
(3.82204e-05 -0.000129159 0)
(5.44647e-05 -0.000152853 0)
(7.29999e-05 -0.000175488 0)
(9.36976e-05 -0.000197231 0)
(0.000116451 -0.000218052 0)
(0.000141171 -0.000237834 0)
(0.000167773 -0.000256401 0)
(0.000196174 -0.000273536 0)
(0.000226283 -0.000288973 0)
(0.000257997 -0.000302394 0)
(0.000291192 -0.000313406 0)
(0.000325719 -0.00032151 0)
(0.000361397 -0.000326051 0)
(0.000398016 -0.000326156 0)
(0.000435347 -0.000320646 0)
(0.00047319 -0.000307924 0)
(0.00051146 -0.000285873 0)
(0.000550337 -0.000251786 0)
(0.000590494 -0.000202393 0)
(0.000633435 -0.000134011 0)
(0.000682056 -4.28653e-05 0)
(7.93551e-07 8.54517e-07 0)
(5.24174e-06 -4.51182e-05 0)
(1.31361e-05 -8.44703e-05 0)
(2.40844e-05 -0.000116153 0)
(3.77446e-05 -0.000144132 0)
(5.38818e-05 -0.000170218 0)
(7.23296e-05 -0.000195091 0)
(9.29502e-05 -0.000218947 0)
(0.000115628 -0.000241776 0)
(0.000140257 -0.000263468 0)
(0.000166742 -0.000283852 0)
(0.000194983 -0.000302703 0)
(0.000224878 -0.000319747 0)
(0.000256313 -0.000334651 0)
(0.000289164 -0.000347003 0)
(0.000323295 -0.000356283 0)
(0.000358563 -0.00036182 0)
(0.000394832 -0.000362744 0)
(0.000432002 -0.000357916 0)
(0.000470071 -0.000345863 0)
(0.000509232 -0.000324722 0)
(0.000550018 -0.00029224 0)
(0.000593505 -0.000245857 0)
(0.00064156 -0.000182935 0)
(0.000697173 -0.000101139 0)
(7.98143e-07 -2.02858e-06 0)
(5.14148e-06 -5.13376e-05 0)
(1.28657e-05 -9.38164e-05 0)
(2.36137e-05 -0.000128358 0)
(3.70768e-05 -0.000158944 0)
(5.30285e-05 -0.000187437 0)
(7.13024e-05 -0.000214559 0)
(9.17569e-05 -0.000240531 0)
(0.000114267 -0.000265361 0)
(0.000138721 -0.000288947 0)
(0.000165014 -0.000311119 0)
(0.000193042 -0.000331651 0)
(0.000222701 -0.000350263 0)
(0.000253882 -0.000366617 0)
(0.000286479 -0.000380294 0)
(0.000320386 -0.000390774 0)
(0.000355516 -0.000397403 0)
(0.000391821 -0.000399354 0)
(0.000429329 -0.000395583 0)
(0.000468208 -0.000384797 0)
(0.00050886 -0.000365436 0)
(0.000552048 -0.000335707 0)
(0.000599052 -0.000293708 0)
(0.000651836 -0.000237652 0)
(0.000713205 -0.000166236 0)
(8.00135e-07 -4.85841e-06 0)
(5.02363e-06 -5.74038e-05 0)
(1.2546e-05 -0.000102954 0)
(2.30532e-05 -0.000140337 0)
(3.62672e-05 -0.000173531 0)
(5.19746e-05 -0.00020444 0)
(7.00114e-05 -0.000233817 0)
(9.02329e-05 -0.000261909 0)
(0.000112512 -0.000288737 0)
(0.000136734 -0.000314208 0)
(0.00016279 -0.000338158 0)
(0.00019058 -0.000360362 0)
(0.000220006 -0.000380542 0)
(0.000250976 -0.000398362 0)
(0.000283407 -0.000413413 0)
(0.000317239 -0.000425195 0)
(0.000352444 -0.000433095 0)
(0.000389059 -0.000436358 0)
(0.000427221 -0.00043407 0)
(0.000467228 -0.000425139 0)
(0.00050962 -0.000408312 0)
(0.000555281 -0.000382229 0)
(0.000605545 -0.000345542 0)
(0.0006623 -0.000297126 0)
(0.000728047 -0.000236383 0)
(7.99783e-07 -7.62739e-06 0)
(4.8928e-06 -6.3297e-05 0)
(1.21944e-05 -0.000111853 0)
(2.24308e-05 -0.000152051 0)
(3.53605e-05 -0.000187848 0)
(5.07818e-05 -0.000221175 0)
(6.85352e-05 -0.000252812 0)
(8.84783e-05 -0.000283026 0)
(0.000110482 -0.000311854 0)
(0.000134433 -0.000339213 0)
(0.000160227 -0.000364946 0)
(0.000187769 -0.000388836 0)
(0.000216974 -0.000410613 0)
(0.00024777 -0.000429954 0)
(0.000280107 -0.000446471 0)
(0.000313966 -0.000459701 0)
(0.000349378 -0.000469088 0)
(0.000386452 -0.000473972 0)
(0.000425408 -0.000473578 0)
(0.000466635 -0.000467019 0)
(0.000510747 -0.000453329 0)
(0.000558662 -0.000431519 0)
(0.000611673 -0.000400692 0)
(0.000671501 -0.000360219 0)
(0.000740296 -0.000309968 0)
(7.96982e-07 -1.03302e-05 0)
(4.75461e-06 -6.90052e-05 0)
(1.18225e-05 -0.000120494 0)
(2.1772e-05 -0.000163475 0)
(3.43933e-05 -0.000201864 0)
(4.95003e-05 -0.000237607 0)
(6.69402e-05 -0.000271506 0)
(8.65721e-05 -0.000303847 0)
(0.000108272 -0.000334681 0)
(0.000131928 -0.000363938 0)
(0.000157442 -0.000391472 0)
(0.00018473 -0.000417077 0)
(0.000213722 -0.000440499 0)
(0.000244368 -0.000461436 0)
(0.000276649 -0.000479533 0)
(0.000310584 -0.000494373 0)
(0.000346254 -0.000505471 0)
(0.000383822 -0.000512266 0)
(0.000423567 -0.000514125 0)
(0.000465927 -0.000510355 0)
(0.000511543 -0.000500239 0)
(0.000561311 -0.000483096 0)
(0.000616426 -0.000458382 0)
(0.0006784 -0.000425823 0)
(0.000749041 -0.00038559 0)
(7.91857e-07 -1.29634e-05 0)
(4.61154e-06 -7.45223e-05 0)
(1.14423e-05 -0.000128868 0)
(2.10948e-05 -0.000174594 0)
(3.3395e-05 -0.000215558 0)
(4.81704e-05 -0.000253712 0)
(6.52755e-05 -0.000289874 0)
(8.4576e-05 -0.000324348 0)
(0.00010595 -0.000357198 0)
(0.000129293 -0.000388368 0)
(0.000154515 -0.000417726 0)
(0.00018154 -0.000445085 0)
(0.000210317 -0.00047021 0)
(0.000240816 -0.000492828 0)
(0.000273043 -0.000512622 0)
(0.000307052 -0.000529229 0)
(0.000342958 -0.000542239 0)
(0.000380962 -0.000551193 0)
(0.000421377 -0.000555591 0)
(0.000464658 -0.000554913 0)
(0.000511437 -0.000548652 0)
(0.000562553 -0.000536376 0)
(0.000619074 -0.000517803 0)
(0.000682299 -0.000492908 0)
(0.000753718 -0.000462052 0)
(7.84165e-07 -1.5525e-05 0)
(4.46728e-06 -7.98471e-05 0)
(1.10601e-05 -0.000136971 0)
(2.04147e-05 -0.000185401 0)
(3.23868e-05 -0.00022892 0)
(4.68205e-05 -0.000269477 0)
(6.35787e-05 -0.000307901 0)
(8.25316e-05 -0.000344511 0)
(0.000103565 -0.000379387 0)
(0.000126579 -0.000412487 0)
(0.000151493 -0.000443698 0)
(0.000178242 -0.000472851 0)
(0.000206787 -0.000499738 0)
(0.000237118 -0.000524117 0)
(0.000269262 -0.000545715 0)
(0.000303294 -0.000564226 0)
(0.000339356 -0.000579314 0)
(0.000377669 -0.000590617 0)
(0.000418557 -0.000597757 0)
(0.000462468 -0.000600362 0)
(0.000510001 -0.0005981 0)
(0.000561915 -0.000590729 0)
(0.000619144 -0.000578159 0)
(0.000682781 -0.000560537 0)
(0.000754041 -0.00053833 0)
(7.73969e-07 -1.80139e-05 0)
(4.32241e-06 -8.49816e-05 0)
(1.06828e-05 -0.000144806 0)
(1.97404e-05 -0.000195895 0)
(3.13839e-05 -0.000241946 0)
(4.54709e-05 -0.000284893 0)
(6.18726e-05 -0.000325575 0)
(8.04674e-05 -0.000364323 0)
(0.000101145 -0.000401233 0)
(0.000123814 -0.000436281 0)
(0.0001484 -0.00046937 0)
(0.000174848 -0.000500355 0)
(0.000203131 -0.000529055 0)
(0.000233253 -0.000555265 0)
(0.000265254 -0.000578754 0)
(0.000299227 -0.000599275 0)
(0.000335322 -0.000616563 0)
(0.000373768 -0.000630343 0)
(0.000414883 -0.000640346 0)
(0.000459092 -0.000646323 0)
(0.00050694 -0.000648083 0)
(0.000559101 -0.000645526 0)
(0.000616372 -0.000638704 0)
(0.000679661 -0.00062787 0)
(0.000749943 -0.000613547 0)
(7.60899e-07 -2.04297e-05 0)
(4.17907e-06 -8.99303e-05 0)
(1.03121e-05 -0.000152377 0)
(1.90791e-05 -0.000206079 0)
(3.03948e-05 -0.000254633 0)
(4.41324e-05 -0.000299955 0)
(6.0172e-05 -0.000342887 0)
(7.83966e-05 -0.000383773 0)
(9.87045e-05 -0.000422722 0)
(0.000121008 -0.000459728 0)
(0.00014524 -0.000494715 0)
(0.000171355 -0.000527562 0)
(0.000199333 -0.000558117 0)
(0.000229185 -0.000586209 0)
(0.000260963 -0.000611653 0)
(0.000294764 -0.000634255 0)