/*--------------------------------*- C++ -*----------------------------------*\
  =========                 |
  \\      /  F ield         | OpenFOAM: The Open Source CFD Toolbox
   \\    /   O peration     | Website:  https://openfoam.org
    \\  /    A nd           | Version:  13
     \\/     M anipulation  |
\*---------------------------------------------------------------------------*/
FoamFile
{
    format      ascii;
    class       volVectorField;
    location    "9";
    object      U;
}
// * * * * * * * * * * * * * * * * * * * * * * * * * * * * * * * * * * * * * //

dimensions      [0 1 -1 0 0 0 0];

internalField   nonuniform List<vector> 
6440
(
(-0.0210332 0.0196459 0)
(-0.0413976 0.0105262 0)
(0.0121461 -0.033362 -1.11103e-15)
(0.103203 -0.0805505 6.76292e-16)
(0.216049 -0.105899 0)
(0.350451 -0.112288 -6.32044e-16)
(0.468625 -0.103231 5.15031e-16)
(0.568359 -0.0859113 0)
(0.647173 -0.0653926 0)
(0.703956 -0.0438016 0)
(0.73834 -0.022233 7.5804e-16)
(0.749974 -0.000569655 -1.51672e-15)
(0.738995 0.0213133 7.57717e-16)
(0.704742 0.0440337 0)
(0.647259 0.0670781 -1.63831e-15)
(0.565208 0.0904752 1.78371e-15)
(0.457248 0.112669 0)
(0.321121 0.127188 0)
(0.159172 0.123888 0)
(-0.00710151 0.0884113 0)
(-0.127279 0.0106897 -7.25651e-15)
(-0.143689 -0.0448163 1.51907e-14)
(-0.150468 -0.0768689 -7.05411e-15)
(-0.129341 -0.107715 -7.01423e-15)
(-0.0524222 -0.0962321 7.41326e-15)
(-0.0137941 0.0504043 0)
(0.0164169 -0.0202505 0)
(0.131025 -0.171532 -4.8006e-16)
(0.264408 -0.274294 3.05343e-16)
(0.394915 -0.310978 0)
(0.513096 -0.298754 -4.07487e-16)
(0.616472 -0.258283 7.41106e-16)
(0.704667 -0.205326 -3.48577e-16)
(0.776916 -0.149154 0)
(0.832187 -0.0935829 0)
(0.870889 -0.0402954 0)
(0.891494 0.0109626 -6.6583e-16)
(0.888394 0.0596834 6.51131e-16)
(0.866659 0.106233 6.45987e-16)
(0.829956 0.149965 -6.51831e-16)
(0.77687 0.190375 0)
(0.706373 0.226637 0)
(0.618828 0.256401 0)
(0.50604 0.273672 0)
(0.365714 0.266126 0)
(0.206463 0.215949 -2.4781e-15)
(0.0528104 0.117323 3.78897e-15)
(-0.0805046 -0.0293963 0)
(-0.110293 -0.154065 -1.06617e-14)
(-0.0479575 -0.176515 1.30465e-14)
(0.000166457 0.0431575 0)
(0.101873 -0.165749 0)
(0.250879 -0.380692 0)
(0.392288 -0.479518 0)
(0.511324 -0.48413 0)
(0.610108 -0.437311 0)
(0.693726 -0.36798 3.12228e-16)
(0.764864 -0.290999 -3.06191e-16)
(0.823387 -0.212853 0)
(0.867762 -0.135836 0)
(0.896276 -0.0608252 0)
(0.90742 0.0120031 0)
(0.901142 0.0821416 0)
(0.877308 0.149177 6.26844e-16)
(0.838472 0.211376 -1.87759e-15)
(0.78801 0.267431 1.26783e-15)
(0.729262 0.316195 0)
(0.664157 0.356476 0)
(0.592257 0.385361 0)
(0.509259 0.39531 0)
(0.40773 0.37287 0)
(0.280608 0.301606 0)
(0.126802 0.166061 3.23094e-15)
(-0.0196145 -0.0231408 -7.31229e-15)
(-0.0358502 -0.173616 6.52595e-15)
(0.027097 -0.0162284 0)
(0.18177 -0.385256 0)
(0.340084 -0.605469 -1.91795e-16)
(0.46898 -0.65751 1.60586e-16)
(0.571034 -0.618469 0)
(0.657178 -0.54136 -2.85882e-16)
(0.733691 -0.450009 2.81155e-16)
(0.801299 -0.353135 0)
(0.85772 -0.253788 5.666e-16)
(0.899867 -0.153401 -5.82512e-16)
(0.925007 -0.0532296 6.09865e-16)
(0.930844 0.0454862 -1.28971e-15)
(0.916848 0.138995 6.18925e-16)
(0.882573 0.225468 0)
(0.830532 0.301572 0)
(0.765778 0.365605 0)
(0.695057 0.416894 1.27398e-15)
(0.624664 0.455715 7.80036e-19)
(0.558186 0.482194 -1.40948e-15)
(0.494884 0.493508 0)
(0.426956 0.48105 0)
(0.340411 0.428418 1.93585e-15)
(0.21374 0.311772 -2.53829e-15)
(0.0492439 0.0967257 -4.75411e-15)
(-0.0547085 -0.189611 1.30188e-14)
(0.0687529 -0.196388 0)
(0.240741 -0.647947 0)
(0.384481 -0.807936 -1.56187e-16)
(0.495707 -0.802405 1.40557e-16)
(0.589153 -0.731649 0)
(0.67558 -0.637021 -2.61432e-16)
(0.756781 -0.530524 2.58772e-16)
(0.829739 -0.415165 0)
(0.890018 -0.292834 5.30408e-16)
(0.933424 -0.166 -5.53781e-16)
(0.956579 -0.0376207 5.92554e-16)
(0.956333 0.0891171 -1.24377e-15)
(0.932142 0.208598 5.93255e-16)
(0.883368 0.31678 0)
(0.813708 0.408027 1.16749e-15)
(0.729948 0.479285 -1.19562e-15)
(0.641009 0.529783 1.25068e-15)
(0.555633 0.561179 9.46487e-19)
(0.480099 0.576374 -1.43249e-15)
(0.416441 0.576864 0)
(0.359274 0.559532 1.72809e-15)
(0.294811 0.51075 7.18013e-19)
(0.194754 0.402814 -2.46704e-15)
(0.0400553 0.170162 -4.04821e-15)
(-0.114732 -0.246405 7.17575e-15)
(0.101954 -0.491237 0)
(0.260406 -0.895784 0)
(0.383299 -0.975262 -1.3881e-16)
(0.484473 -0.931793 1.29419e-16)
(0.579998 -0.847208 0)
(0.675006 -0.742999 -2.42776e-16)
(0.766496 -0.621631 2.40588e-16)
(0.848556 -0.483401 0)
(0.91485 -0.330962 5.00911e-16)
(0.960182 -0.169463 -5.32058e-16)
(0.981057 -0.0051225 5.8466e-16)
(0.972982 0.154602 -1.19729e-15)
(0.936434 0.302509 5.67813e-16)
(0.868841 0.432582 0)
(0.776145 0.537353 -1.12683e-15)
(0.668744 0.612232 1.16636e-15)
(0.559675 0.656803 1.23858e-15)
(0.459257 0.674495 1.17711e-18)
(0.373973 0.671147 -1.48234e-15)
(0.306846 0.652079 0)
(0.25362 0.618692 -1.87179e-15)
(0.202867 0.559101 4.29839e-15)
(0.118562 0.443033 -2.55053e-15)
(-0.0352774 0.171062 -4.05263e-15)
(-0.175533 -0.293147 7.06606e-15)
(0.103912 -0.779639 0)
(0.244189 -1.09032 0)
(0.3498 -1.12092 -1.29465e-16)
(0.445275 -1.06275 1.22352e-16)
(0.544256 -0.974628 0)
(0.647436 -0.863948 -2.29017e-16)
(0.749336 -0.726969 2.27347e-16)
(0.841589 -0.561916 0)
(0.914468 -0.371965 4.83989e-16)
(0.95995 -0.16498 -5.26866e-16)
(0.975149 0.0487678 6.00735e-16)
(0.952779 0.249963 -1.17741e-15)
(0.903978 0.428251 5.53983e-16)
(0.815595 0.576032 0)
(0.698575 0.688357 0)
(0.565487 0.761035 0)
(0.43707 0.793112 1.25544e-15)
(0.326199 0.78946 1.4862e-18)
(0.237466 0.759839 -1.58005e-15)
(0.17161 0.713395 0)
(0.125763 0.654468 0)
(0.0858656 0.57621 1.98803e-15)
(0.00853942 0.434979 -2.22069e-15)
(-0.145271 0.0927875 -3.90972e-15)
(-0.198627 -0.289474 6.56068e-15)
(0.0873027 -1.0136 0)
(0.206878 -1.25312 0)
(0.290217 -1.24822 -1.24701e-16)
(0.373214 -1.1883 1.18875e-16)
(0.46731 -1.10444 0)
(0.571177 -0.99126 -2.22547e-16)
(0.679532 -0.840686 2.21884e-16)
(0.782054 -0.649164 0)
(0.863659 -0.419465 4.89114e-16)
(0.907858 -0.162049 -5.55278e-16)
(0.907217 0.114946 6.7041e-16)
(0.872242 0.37216 -1.22354e-15)
(0.800362 0.590648 5.66018e-16)
(0.694078 0.752822 0)
(0.556043 0.859104 0)
(0.402778 0.915066 0)
(0.261679 0.925311 1.32726e-15)
(0.150601 0.893169 1.8764e-18)
(0.0724552 0.830079 -1.53304e-15)
(0.0177596 0.754999 0)
(-0.0165403 0.667521 0)
(-0.0438588 0.556496 1.62756e-15)
(-0.120255 0.350487 -1.98775e-15)
(-0.252126 -0.0767939 -4.74591e-15)
(-0.170323 -0.273004 1.19328e-14)
(0.06188 -1.18246 0)
(0.150538 -1.35575 0)
(0.197988 -1.33911 0)
(0.254491 -1.28938 0)
(0.328068 -1.2125 2.33071e-16)
(0.417742 -1.09809 -2.29165e-16)
(0.521568 -0.935006 2.29928e-16)
(0.630801 -0.713939 -2.41473e-16)
(0.727255 -0.440981 5.40535e-16)
(0.777018 -0.143563 -5.87366e-20)
(0.755844 0.163358 5.7646e-19)
(0.695912 0.451876 -7.01756e-16)
(0.601178 0.706161 -6.31195e-16)
(0.47876 0.899364 1.21038e-15)
(0.329237 1.01353 -1.8607e-15)
(0.169044 1.04967 1.32033e-15)
(0.0361115 1.02303 0)
(-0.0556881 0.965269 1.17322e-15)
(-0.113931 0.877695 -1.14064e-15)
(-0.150858 0.769697 1.16941e-15)
(-0.167575 0.646518 9.6886e-19)
(-0.174341 0.478479 6.60524e-19)
(-0.220279 0.162985 -2.18803e-15)
(-0.202064 -0.291482 0)
(-0.0852844 -0.225408 -5.91993e-15)
(0.0270534 -1.27187 0)
(0.0706794 -1.40878 0)
(0.0659237 -1.37965 0)
(0.0778777 -1.33324 0)
(0.110804 -1.26025 -2.58827e-16)
(0.165738 -1.14408 2.60065e-16)
(0.244813 -0.958617 -2.6893e-16)
(0.346963 -0.683414 2.98831e-16)
(0.466757 -0.317506 0)
(0.523247 0.0618055 -1.35576e-15)
(0.443836 0.400007 -1.63923e-18)
(0.304144 0.674969 1.39921e-15)
(0.19681 0.871394 0)
(0.105615 1.02427 -7.01102e-16)
(-0.00964274 1.11946 1.69319e-15)
(-0.129737 1.144 -9.86485e-16)
(-0.220945 1.11156 9.15605e-16)
(-0.276458 1.00783 -8.92296e-16)
(-0.309788 0.890805 0)
(-0.32863 0.752951 -9.82227e-16)
(-0.31949 0.57635 2.24919e-15)
(-0.276021 0.291697 -3.09048e-15)
(-0.201503 -0.124222 3.67738e-15)
(0.0562883 -0.233975 0)
(0.0498441 -0.0912607 -6.06034e-15)
(-0.0178757 -1.2701 0)
(-0.036679 -1.33345 0)
(-0.105668 -1.31575 0)
(-0.154386 -1.28446 0)
(-0.180099 -1.22368 2.7527e-16)
(-0.179421 -1.10701 -2.86885e-16)
(-0.146122 -0.894842 3.14968e-16)
(-0.0678561 -0.558803 -3.81303e-16)
(0.0848007 -0.076262 1.07327e-15)
(0.171144 0.393315 3.17204e-19)
(0.0670011 0.560764 -1.09055e-15)
(-0.139463 0.729092 0)
(-0.260365 0.903295 -5.84979e-16)
(-0.311519 1.05434 9.3735e-16)
(-0.3703 1.14989 -1.21636e-15)
(-0.435064 1.15776 7.48998e-16)
(-0.472223 1.11329 0)
(-0.487869 1.01658 7.41946e-16)
(-0.500177 0.873195 -7.86189e-16)
(-0.497926 0.683347 8.84865e-16)
(-0.437518 0.384482 8.23177e-19)
(-0.267332 -0.04084 -2.27275e-15)
(-0.0181979 -0.240167 0)
(0.0835014 -0.134514 0)
(0.0690461 0.0469996 0)
(-0.0690482 -1.14948 0)
(-0.169783 -1.17715 0)
(-0.308652 -1.17237 1.25803e-16)
(-0.428308 -1.15702 -1.16251e-16)
(-0.52196 -1.11009 0)
(-0.582644 -1.00135 2.12621e-16)
(-0.599937 -0.801337 -4.37515e-16)
(-0.56111 -0.486291 2.43265e-16)
(-0.462497 -0.0765125 0)
(-0.39656 0.306376 0)
(-0.478426 0.53181 0)
(-0.648542 0.691403 4.88257e-16)
(-0.715348 0.871133 -4.06261e-16)
(-0.69344 1.0429 -3.54752e-16)
(-0.682211 1.14996 -3.25976e-16)
(-0.693503 1.15905 6.24506e-16)
(-0.693457 1.11447 6.27398e-16)
(-0.682628 0.997232 -6.51717e-16)
(-0.672997 0.810641 0)
(-0.632146 0.50664 0)
(-0.487645 0.0560017 1.43948e-15)
(-0.27505 -0.24243 -2.61299e-15)
(-0.169689 -0.254992 0)
(-0.0770627 -0.127836 4.08822e-15)
(0.0421214 0.0688062 -1.93003e-14)
(-0.122884 -0.896738 0)
(-0.314424 -0.934806 0)
(-0.528113 -0.945935 -1.19823e-16)
(-0.719842 -0.952147 1.04381e-16)
(-0.881767 -0.930295 1.86104e-16)
(-1.00568 -0.85044 -3.46486e-16)
(-1.08205 -0.683253 3.3842e-16)
(-1.10455 -0.416135 -1.76347e-16)
(-1.07892 -0.0782264 0)
(-1.04686 0.246897 4.742e-16)
(-1.05953 0.487143 -3.88862e-16)
(-1.10839 0.685017 -3.45071e-16)
(-1.09183 0.87824 -6.14345e-19)
(-1.01293 1.05025 5.84197e-16)
(-0.949853 1.15483 -8.37124e-16)
(-0.919149 1.15472 5.50897e-16)
(-0.889923 1.09772 0)
(-0.853669 0.936862 0)
(-0.806901 0.653888 0)
(-0.69706 0.199784 9.85117e-16)
(-0.509833 -0.232471 -1.67218e-15)
(-0.410017 -0.316388 0)
(-0.365194 -0.354358 0)
(-0.230559 -0.297181 -2.59003e-15)
(-0.0346237 -0.0741116 7.45087e-20)
(-0.177546 -0.573606 0)
(-0.458665 -0.625702 0)
(-0.742282 -0.653369 1.21629e-16)
(-0.997122 -0.684001 -9.96627e-17)
(-1.21499 -0.693609 -1.69829e-16)
(-1.3882 -0.652428 3.04977e-16)
(-1.50676 -0.532408 -2.88089e-16)
(-1.56318 -0.321138 1.44718e-16)
(-1.56122 -0.0402504 0)
(-1.52988 0.247209 -3.49297e-16)
(-1.50394 0.479953 3.0596e-16)
(-1.46855 0.68181 2.83376e-16)
(-1.38707 0.870035 -2.69175e-16)
(-1.27641 1.02613 -2.60073e-16)
(-1.18295 1.11451 -2.55585e-16)
(-1.11515 1.11218 5.13361e-16)
(-1.04822 1.01304 5.39233e-16)
(-0.963914 0.778439 -6.00605e-16)
(-0.833997 0.360203 0)
(-0.621089 -0.16895 -1.32112e-15)
(-0.47724 -0.374864 3.21421e-15)
(-0.476663 -0.381184 -1.74035e-15)
(-0.429113 -0.46536 0)
(-0.315166 -0.476094 2.07478e-15)
(-0.116566 -0.271303 -3.60674e-15)
(-0.2298 -0.251968 1.54595e-16)
(-0.584466 -0.281128 9.78583e-17)
(-0.922566 -0.322874 -1.34001e-16)
(-1.22359 -0.379119 2.02799e-16)
(-1.47756 -0.426445 -5.40883e-19)
(-1.67939 -0.434539 -1.44186e-16)
(-1.82099 -0.374199 1.32354e-16)
(-1.89493 -0.231787 1.2915e-16)
(-1.9003 -0.0197369 -2.6995e-16)
(-1.8513 0.223201 2.97485e-16)
(-1.79144 0.439244 -2.73702e-16)
(-1.72148 0.620116 0)
(-1.61429 0.78143 -2.52022e-16)
(-1.48177 0.916037 4.96453e-16)
(-1.3554 0.988806 -2.48324e-16)
(-1.23778 0.965066 5.13726e-16)
(-1.10391 0.810439 -5.60275e-16)
(-0.919451 0.460014 0)
(-0.652009 -0.0989924 0)
(-0.435755 -0.467126 1.72022e-15)
(-0.465039 -0.430413 6.2521e-19)
(-0.479302 -0.440214 -1.86682e-15)
(-0.43791 -0.530764 0)
(-0.33184 -0.580864 0)
(-0.149722 -0.432 -2.76567e-15)
(-0.281258 0.106592 0)
(-0.684313 0.0961491 0)
(-1.04574 0.027083 0)
(-1.3636 -0.0654072 0)
(-1.62896 -0.159045 0)
(-1.83845 -0.22274 0)
(-1.98346 -0.22795 0)
(-2.05315 -0.155588 0)
(-2.07446 -0.0082625 2.55113e-16)
(-2.06697 0.184575 -2.74693e-16)
(-1.95991 0.372129 0)
(-1.85666 0.524148 0)
(-1.74283 0.64898 0)
(-1.59144 0.750419 0)
(-1.41518 0.79659 0)
(-1.21688 0.72734 0)
(-0.974032 0.468946 -6.84039e-16)
(-0.662807 -0.0298826 2.13884e-15)
(-0.412662 -0.483678 -3.72689e-15)
(-0.431625 -0.488701 1.784e-15)
(-0.457822 -0.491327 1.84519e-15)
(-0.444828 -0.515913 -2.01567e-15)
(-0.412222 -0.582174 -2.05557e-15)
(-0.31258 -0.640171 2.0127e-15)
(-0.140637 -0.518352 -2.49571e-15)
(-0.310297 0.491951 0)
(-0.7186 0.491065 0)
(-1.08471 0.378096 1.03282e-16)
(-1.39451 0.235228 -9.22328e-17)
(-1.6411 0.0839288 0)
(-1.82867 -0.0392037 1.56213e-16)
(-1.95965 -0.103378 -2.7824e-16)
(-2.04226 -0.0884916 1.31114e-16)
(-2.07942 -0.00340344 2.60602e-16)
(-2.06897 0.138589 -2.74253e-16)
(-1.96219 0.288779 -2.80774e-16)
(-1.82763 0.420762 5.53583e-16)
(-1.69509 0.517693 -2.78663e-16)
(-1.51866 0.57005 -2.89243e-16)
(-1.28724 0.548205 -3.1478e-16)
(-1.00707 0.39033 7.48424e-16)
(-0.694927 0.0390931 0)
(-0.47056 -0.358068 1.8103e-15)
(-0.459307 -0.472086 -1.79217e-15)
(-0.459275 -0.535221 0)
(-0.441261 -0.572952 1.82708e-15)
(-0.400335 -0.598705 -4.06728e-15)
(-0.371954 -0.621357 2.19809e-15)
(-0.25705 -0.646902 2.14554e-15)
(-0.10261 -0.514522 -5.027e-15)
(-0.285712 0.945739 6.22645e-17)
(-0.641169 0.861782 5.05218e-17)
(-0.960063 0.701402 -9.07853e-17)
(-1.20053 0.494163 1.73435e-16)
(-1.36859 0.275566 -3.54088e-16)
(-1.4989 0.0943957 1.86496e-16)
(-1.62483 -0.0100489 0)
(-1.7333 -0.036336 3.23748e-16)
(-1.79011 -0.00247484 -3.15279e-16)
(-1.78254 0.0736666 -3.21113e-16)
(-1.71595 0.171539 3.40284e-16)
(-1.60407 0.269317 0)
(-1.45352 0.342459 3.5327e-16)
(-1.26506 0.355154 -3.792e-16)
(-1.04484 0.273399 8.80254e-16)
(-0.815981 0.0758775 1.37971e-18)
(-0.652846 -0.178862 -3.21927e-15)
(-0.576246 -0.384552 1.6817e-15)
(-0.520682 -0.52751 -1.50173e-15)
(-0.463242 -0.616947 -1.08358e-18)
(-0.406261 -0.655711 3.39877e-15)
(-0.338945 -0.656904 -1.93221e-15)
(-0.299943 -0.627711 0)
(-0.150354 -0.602277 0)
(-0.0398063 -0.386476 0)
(-0.224567 1.32888 0)
(-0.509287 1.18816 0)
(-0.784676 0.968037 0)
(-0.984612 0.680721 0)
(-1.1329 0.385709 0)
(-1.26357 0.166929 0)
(-1.38586 0.0613218 -2.17341e-16)
(-1.48002 0.0285453 2.0076e-16)
(-1.52311 0.030065 3.81915e-16)
(-1.51148 0.0650553 -3.80793e-16)
(-1.4619 0.130626 -4.00689e-16)
(-1.38482 0.199463 4.30236e-16)
(-1.28044 0.234562 0)
(-1.14867 0.204421 -4.73863e-16)
(-1.00364 0.0973108 5.53297e-16)
(-0.867807 -0.0739669 0)
(-0.741818 -0.282104 0)
(-0.626228 -0.485408 1.34586e-15)
(-0.520398 -0.640672 -2.6969e-15)
(-0.426224 -0.727019 1.42953e-15)
(-0.343408 -0.746051 1.61659e-15)
(-0.252439 -0.706844 -3.37862e-15)
(-0.191432 -0.61993 1.7038e-15)
(-0.00231314 -0.523512 0)
(0.0538436 -0.146836 -2.87485e-15)
(-0.154419 1.59157 0)
(-0.367761 1.44908 0)
(-0.60668 1.17653 8.1715e-17)
(-0.792358 0.818982 -8.67488e-17)
(-0.958905 0.468367 0)
(-1.11278 0.24243 2.265e-16)
(-1.23144 0.151798 -4.95048e-16)
(-1.30511 0.11228 2.39683e-16)
(-1.33149 0.0793062 4.45345e-16)
(-1.3118 0.0738768 -4.34216e-16)
(-1.27361 0.120754 0)
(-1.23566 0.187067 5.05287e-16)
(-1.1858 0.204717 -5.43068e-16)
(-1.11155 0.136163 -5.65479e-16)
(-1.01249 -0.0108457 -5.98329e-16)
(-0.891196 -0.206014 1.19733e-15)
(-0.757115 -0.419653 0)
(-0.617336 -0.620639 1.19544e-15)
(-0.48109 -0.772721 -1.2385e-15)
(-0.357402 -0.854856 0)
(-0.242753 -0.863147 0)
(-0.129999 -0.799379 0)
(-0.0241368 -0.66969 0)
(0.18184 -0.508583 1.54596e-15)
(0.259668 0.0224926 -7.7492e-15)
(-0.0879265 1.75758 0)
(-0.228201 1.64809 0)
(-0.424394 1.35924 0)
(-0.593209 0.966407 0)
(-0.767657 0.581791 0)
(-0.919154 0.347416 0)
(-1.02299 0.256084 0)
(-1.08972 0.188746 0)
(-1.1162 0.110119 0)
(-1.10979 0.07499 0)
(-1.09165 0.121813 0)
(-1.07661 0.188334 0)
(-1.05966 0.169206 0)
(-1.01383 0.0437209 0)
(-0.940577 -0.136102 0)
(-0.841077 -0.3429 0)
(-0.711233 -0.565578 0)
(-0.561884 -0.774533 0)
(-0.408168 -0.931177 0)
(-0.259884 -1.01378 0)
(-0.121565 -1.02019 0)
(0.0180799 -0.957103 0)
(0.17882 -0.841278 0)
(0.37795 -0.700446 0)
(0.692679 -0.380085 0)
(-0.0315856 1.83487 0)
(-0.096276 1.81969 0)
(-0.236208 1.50951 0)
(-0.373562 1.1118 0)
(-0.538719 0.688604 0)
(-0.690227 0.394817 0)
(-0.791059 0.260409 0)
(-0.856123 0.171437 0)
(-0.894182 0.0619352 0)
(-0.912564 0.011153 0)
(-0.925317 0.0974761 0)
(-0.90743 0.215952 0)
(-0.888187 0.198332 0)
(-0.845646 0.0493335 0)
(-0.802146 -0.137909 0)
(-0.747972 -0.358525 0)
(-0.645206 -0.613317 0)
(-0.504009 -0.861025 0)
(-0.34583 -1.04572 0)
(-0.183277 -1.14452 0)
(-0.0231681 -1.16224 0)
(0.136665 -1.11364 0)
(0.306211 -1.02226 0)
(0.484369 -0.909918 0)
(0.720024 -0.79029 0)
(0.0142851 1.83855 0)
(0.0232765 1.86747 0)
(-0.0468103 1.62361 0)
(-0.137287 1.25411 0)
(-0.274429 0.814097 0)
(-0.431152 0.424601 0)
(-0.574934 0.144606 0)
(-0.652449 -0.0155216 0)
(-0.673075 -0.0939278 0)
(-0.683178 -0.129946 0)
(-0.729624 -0.0184702 0)
(-0.708661 0.197259 0)
(-0.656025 0.237739 0)
(-0.560245 0.0934048 0)
(-0.549515 -0.0781694 0)
(-0.561056 -0.318593 0)
(-0.501356 -0.628593 0)
(-0.382278 -0.946308 0)
(-0.234049 -1.178 0)
(-0.0735253 -1.29668 0)
(0.0918406 -1.32087 0)
(0.258219 -1.27941 0)
(0.42621 -1.20019 0)
(0.600948 -1.10526 0)
(0.790118 -1.00351 0)
(0.053682 1.7761 0)
(0.127677 1.86834 0)
(0.129251 1.68068 0)
(0.103118 1.36823 0)
(0.0320444 0.979384 0)
(-0.0901948 0.568873 0)
(-0.277089 0.199858 0)
(-0.483588 -0.100161 0)
(-0.539747 -0.228796 0)
(-0.407198 -0.257551 0)
(-0.468931 -0.174798 0)
(-0.461778 0.109719 0)
(-0.354342 0.306832 0)
(-0.106228 0.252993 0)
(-0.173669 0.12815 0)
(-0.284691 -0.143822 0)
(-0.292225 -0.547997 0)
(-0.211434 -0.988022 0)
(-0.086315 -1.29817 0)
(0.0621543 -1.44636 0)
(0.222497 -1.47745 0)
(0.38585 -1.44159 0)
(0.550127 -1.36729 0)
(0.714978 -1.27529 0)
(0.880608 -1.18081 0)
(0.0863041 1.65294 0)
(0.216432 1.8149 0)
(0.281851 1.67894 0)
(0.31281 1.41986 0)
(0.310187 1.09974 0)
(0.268534 0.747202 0)
(0.167755 0.39239 0)
(0.0193557 0.0857302 0)
(-0.128604 -0.135775 0)
(-0.11338 -0.244895 0)
(-0.140888 -0.247464 0)
(-0.144724 -0.177854 0)
(-0.0541222 -0.0586681 0)
(0.0977365 0.135675 0)
(0.17582 0.208663 0)
(0.065604 0.0959559 0)
(-0.0346152 -0.374959 0)
(-0.00461901 -0.981232 0)
(0.0879422 -1.39929 0)
(0.216757 -1.58271 0)
(0.364932 -1.63035 0)
(0.52114 -1.60093 0)
(0.679025 -1.5284 0)
(0.835974 -1.43525 0)
(0.989768 -1.33642 0)
(0.112847 1.47642 0)
(0.290144 1.70124 0)
(0.408661 1.62762 0)
(0.484275 1.41777 0)
(0.526755 1.14842 0)
(0.536847 0.854144 0)
(0.508401 0.560199 0)
(0.439638 0.290677 0)
(0.355102 0.0734119 0)
(0.289304 -0.0794746 0)
(0.231152 -0.16593 0)
(0.196604 -0.173446 0)
(0.27516 -0.156598 0)
(0.376351 -0.113442 0)
(0.414178 0.0392451 0)
(0.341391 0.0943467 0)
(0.22 -0.204603 0)
(0.210809 -0.933022 0)
(0.2763 -1.45956 0)
(0.384953 -1.70106 0)
(0.518575 -1.77284 0)
(0.663442 -1.75245 0)
(0.812009 -1.68224 0)
(0.960035 -1.5872 0)
(1.10454 -1.48321 0)
(0.133336 1.25257 0)
(0.345957 1.54393 0)
(0.504564 1.53255 0)
(0.615764 1.37371 0)
(0.690052 1.14818 0)
(0.731385 0.896662 0)
(0.737486 0.643664 0)
(0.709455 0.408668 0)
(0.65659 0.209093 0)
(0.60019 0.0528462 0)
(0.542752 -0.0547073 0)
(0.496853 -0.101134 0)
(0.520502 -0.116689 0)
(0.578299 -0.13174 0)
(0.597647 -0.0599386 0)
(0.534331 0.0242498 0)
(0.435378 -0.11592 0)
(0.420505 -0.872195 0)
(0.473019 -1.49595 0)
(0.56549 -1.79974 0)
(0.683389 -1.90031 0)
(0.814217 -1.89197 0)
(0.950161 -1.82547 0)
(1.08704 -1.72978 0)
(1.22206 -1.62179 0)
(0.145448 0.985374 0)
(0.379944 1.35444 0)
(0.567 1.40253 0)
(0.704792 1.29356 0)
(0.803167 1.11018 0)
(0.866861 0.897536 0)
(0.895436 0.67944 0)
(0.893335 0.472248 0)
(0.863697 0.28981 0)
(0.819436 0.138534 0)
(0.772501 0.0218652 0)
(0.727281 -0.0503282 0)
(0.726877 -0.0998336 0)
(0.756071 -0.131956 0)
(0.752648 -0.0921681 0)
(0.689369 0.00759476 0)
(0.619827 -0.0646628 0)
(0.622596 -0.833091 0)
(0.676361 -1.52116 0)
(0.756475 -1.87994 0)
(0.858277 -2.01016 0)
(0.972952 -2.01582 0)
(1.09385 -1.95484 0)
(1.21706 -1.85991 0)
(1.34028 -1.75023 0)
(0.139711 0.67858 0)
(0.385231 1.13824 0)
(0.592356 1.24582 0)
(0.750716 1.18426 0)
(0.868512 1.04104 0)
(0.948067 0.864251 0)
(1.00297 0.679531 0)
(1.01297 0.500519 0)
(0.998935 0.336023 0)
(0.970639 0.192712 0)
(0.93224 0.0729482 0)
(0.889868 -0.0187121 0)
(0.879114 -0.100042 0)
(0.892501 -0.153925 0)
(0.877424 -0.135706 0)
(0.816875 -0.0283128 0)
(0.779126 -0.0510638 0)
(0.81607 -0.828897 0)
(0.881577 -1.54851 0)
(0.953841 -1.94651 0)
(1.04007 -2.102 0)
(1.13755 -2.12192 0)
(1.24155 -2.06761 0)
(1.34907 -1.97533 0)
(1.4585 -1.86603 0)
(0.110076 0.36692 0)
(0.355804 0.87847 0)
(0.579773 1.06137 0)
(0.755277 1.05116 0)
(0.887683 0.947749 0)
(0.981347 0.804605 0)
(1.04165 0.650703 0)
(1.07797 0.499686 0)
(1.07157 0.355676 0)
(1.0566 0.223041 0)
(1.02858 0.104129 0)
(0.994283 0.00143152 0)
(0.970078 -0.117551 0)
(0.977814 -0.178865 0)
(0.967381 -0.174168 0)
(0.915198 -0.067939 0)
(0.915275 -0.0979085 0)
(0.999381 -0.873186 0)
(1.08346 -1.58892 0)
(1.15185 -2.00206 0)
(1.22389 -2.17656 0)
(1.30384 -2.20976 0)
(1.38984 -2.16281 0)
(1.48048 -2.07455 0)
(1.57484 -1.96791 0)
(0.0660173 0.129471 0)
(0.294432 0.604863 0)
(0.530353 0.851745 0)
(0.725279 0.896237 0)
(0.872248 0.835798 0)
(0.974398 0.72733 0)
(1.03904 0.601561 0)
(1.0761 0.475269 0)
(1.08444 0.352216 0)
(1.07829 0.232205 0)
(1.06172 0.119823 0)
(1.03094 0.0100502 0)
(1.00797 -0.132558 0)
(1.01229 -0.202988 0)
(1.01746 -0.201943 0)
(0.984604 -0.089077 0)
(1.03205 -0.208898 0)
(1.17152 -0.967043 0)
(1.27709 -1.64685 0)
(1.34437 -2.05369 0)
(1.40402 -2.2387 0)
(1.46673 -2.28005 0)
(1.5346 -2.24012 0)
(1.60804 -2.15748 0)
(1.68712 -2.05547 0)
(0.0220072 -0.0373027 0)
(0.215718 0.332772 0)
(0.452002 0.610055 0)
(0.66544 0.711081 0)
(0.830775 0.702668 0)
(0.942827 0.638014 0)
(1.00944 0.543968 0)
(1.04296 0.439479 0)
(1.05753 0.333288 0)
(1.05615 0.226492 0)
(1.03968 0.120186 0)
(1.01536 0.0067335 0)
(1.00443 -0.130502 0)
(1.02105 -0.217712 0)
(1.02411 -0.221851 0)
(1.0129 -0.120621 0)
(1.13619 -0.374451 0)
(1.33352 -1.1062 0)
(1.45829 -1.7218 0)
(1.52536 -2.10308 0)
(1.57428 -2.2869 0)
(1.62086 -2.33273 0)
(1.67109 -2.2998 0)
(1.72794 -2.22418 0)
(1.79254 -2.1292 0)
(8.07479e-06 -0.114747 0)
(0.137768 0.0761931 0)
(0.35812 0.337218 0)
(0.585132 0.479096 0)
(0.774774 0.53042 0)
(0.906041 0.527225 0)
(0.972312 0.482001 0)
(0.994881 0.406456 0)
(0.998405 0.315165 0)
(0.990984 0.21643 0)
(0.975413 0.11205 0)
(0.960533 -0.00277112 0)
(0.963096 -0.127138 0)
(0.983428 -0.231582 0)
(0.99817 -0.227364 0)
(1.01661 -0.165489 0)
(1.24636 -0.612298 0)
(1.49011 -1.28505 0)
(1.62337 -1.81 0)
(1.68879 -2.15084 0)
(1.72821 -2.32362 0)
(1.76 -2.36934 0)
(1.794 -2.34276 0)
(1.83531 -2.27567 0)
(1.88621 -2.19001 0)
(0.0209243 -0.0847973 0)
(0.14155 -0.0677665 0)
(0.334872 0.0820352 0)
(0.559418 0.225524 0)
(0.754434 0.325847 0)
(0.893173 0.395229 0)
(0.931532 0.417676 0)
(0.935419 0.38329 0)
(0.919647 0.309003 0)
(0.899609 0.210462 0)
(0.886268 0.102373 0)
(0.882272 -0.0071042 0)
(0.891354 -0.138742 0)
(0.910435 -0.239721 0)
(0.924642 -0.227038 0)
(1.04322 -0.334016 0)
(1.38656 -0.915195 0)
(1.6393 -1.48079 0)
(1.76745 -1.90301 0)
(1.82858 -2.19547 0)
(1.85893 -2.35172 0)
(1.87758 -2.39153 0)
(1.89679 -2.37077 0)
(1.92417 -2.31325 0)
(1.96299 -2.23907 0)
(0.0745847 -0.127324 0)
(0.270789 -0.204177 0)
(0.464805 -0.133588 0)
(0.636557 -0.0147183 0)
(0.77491 0.126917 0)
(0.869484 0.273294 0)
(0.884549 0.372631 0)
(0.857282 0.377211 0)
(0.819348 0.318673 0)
(0.792376 0.216084 0)
(0.781769 0.107871 0)
(0.780627 -0.0024015 0)
(0.792617 -0.128284 0)
(0.78429 -0.203913 0)
(0.831751 -0.229768 0)
(1.18285 -0.691529 0)
(1.54972 -1.24463 0)
(1.7712 -1.66811 0)
(1.8842 -1.99226 0)
(1.9386 -2.23604 0)
(1.95971 -2.37043 0)
(1.9667 -2.39903 0)
(1.9739 -2.38562 0)
(1.98976 -2.33885 0)
(2.01854 -2.27798 0)
(0.122699 -0.283349 0)
(0.306833 -0.384763 0)
(0.441579 -0.283314 0)
(0.543387 -0.117715 0)
(0.642309 0.0452167 0)
(0.728406 0.219763 0)
(0.747832 0.380517 0)
(0.714967 0.384475 0)
(0.675587 0.334564 0)
(0.651651 0.230228 0)
(0.64595 0.119919 0)
(0.652578 0.000793602 0)
(0.664934 -0.109608 0)
(0.664368 -0.152797 0)
(0.944222 -0.527384 0)
(1.38688 -1.11072 0)
(1.6946 -1.53013 0)
(1.86968 -1.82449 0)
(1.96597 -2.07034 0)
(2.0124 -2.27066 0)
(2.02352 -2.3786 0)
(2.02213 -2.39866 0)
(2.02079 -2.39255 0)
(2.02911 -2.35588 0)
(2.05201 -2.30981 0)
(0.126979 -0.442166 0)
(0.246616 -0.502297 0)
(0.288461 -0.375098 0)
(0.299015 -0.189833 0)
(0.36286 -0.0135611 0)
(0.442692 0.178095 0)
(0.493811 0.369201 0)
(0.485703 0.382397 0)
(0.466544 0.337653 0)
(0.461845 0.23486 0)
(0.475128 0.113404 0)
(0.494241 -0.0133209 0)
(0.497845 -0.0881733 0)
(0.711922 -0.37655 0)
(1.20042 -1.0091 0)
(1.56915 -1.46847 0)
(1.79283 -1.74468 0)
(1.9256 -1.94647 0)
(2.00671 -2.13553 0)
(2.0385 -2.29703 0)
(2.04261 -2.37977 0)
(2.0392 -2.39775 0)
(2.03703 -2.39336 0)
(2.04312 -2.36825 0)
(2.06488 -2.33862 0)
(0.105967 -0.539943 0)
(0.125642 -0.54847 0)
(0.0608934 -0.419257 0)
(-0.00889817 -0.232476 0)
(0.0311554 -0.0428445 0)
(0.0923579 0.129654 0)
(0.168493 0.327209 0)
(0.187769 0.35667 0)
(0.204801 0.300693 0)
(0.235543 0.191775 0)
(0.27884 0.0607358 0)
(0.306467 -0.0466791 0)
(0.488755 -0.277948 0)
(1.00152 -0.901421 0)
(1.42175 -1.41643 0)
(1.67973 -1.71843 0)
(1.8358 -1.89595 0)
(1.94053 -2.04142 0)
(2.00999 -2.18923 0)
(2.03442 -2.31436 0)
(2.03772 -2.37767 0)
(2.03314 -2.39368 0)
(2.02915 -2.39224 0)
(2.037 -2.3811 0)
(2.06205 -2.36895 0)
(0.0557815 -0.560855 0)
(-0.0258598 -0.542472 0)
(-0.188231 -0.40199 0)
(-0.305575 -0.232776 0)
(-0.299751 -0.0239107 0)
(-0.271281 0.119307 0)
(-0.195925 0.257245 0)
(-0.139926 0.259786 0)
(-0.0742102 0.191095 0)
(-0.000755364 0.0735963 0)
(0.0478257 -0.0507233 0)
(0.27143 -0.242368 0)
(0.800366 -0.812199 0)
(1.25905 -1.34956 0)
(1.54866 -1.69326 0)
(1.72135 -1.88617 0)
(1.83604 -2.00827 0)
(1.92456 -2.12011 0)
(1.98631 -2.23434 0)
(2.00809 -2.32539 0)
(2.00661 -2.37308 0)
(2.00011 -2.38902 0)
(2.00096 -2.39568 0)
(2.01615 -2.39968 0)
(2.04744 -2.40426 0)
(0.00422714 -0.508166 0)
(-0.174021 -0.440123 0)
(-0.402169 -0.332993 0)
(-0.551071 -0.19521 0)
(-0.603268 -0.0341761 0)
(-0.586772 0.0770552 0)
(-0.514362 0.140138 0)
(-0.420188 0.118134 0)
(-0.318176 0.0443981 0)
(-0.197354 -0.0842328 0)
(0.0984827 -0.255617 0)
(0.617904 -0.757569 0)
(1.08542 -1.27507 0)
(1.40175 -1.64916 0)
(1.59608 -1.87713 0)
(1.71919 -2.00804 0)
(1.81093 -2.09958 0)
(1.88554 -2.18681 0)
(1.93135 -2.27049 0)
(1.94682 -2.3326 0)
(1.94696 -2.36832 0)
(1.94854 -2.38977 0)
(1.96081 -2.40844 0)
(1.98664 -2.42722 0)
(2.02493 -2.44526 0)
(-0.0358205 -0.384004 0)
(-0.288406 -0.307976 0)
(-0.545493 -0.224231 0)
(-0.712306 -0.13066 0)
(-0.78718 -0.0285779 0)
(-0.773678 0.0361271 0)
(-0.691243 0.0515733 0)
(-0.559779 0.00152148 0)
(-0.367956 -0.121704 0)
(-0.0202611 -0.340756 0)
(0.456925 -0.71599 0)
(0.904337 -1.1899 0)
(1.23685 -1.58556 0)
(1.45882 -1.85333 0)
(1.59981 -2.01143 0)
(1.69467 -2.10464 0)
(1.76828 -2.17405 0)
(1.82364 -2.23834 0)
(1.85544 -2.29542 0)
(1.86833 -2.33917 0)
(1.87695 -2.37234 0)
(1.89239 -2.4028 0)
(1.91828 -2.43365 0)
(1.95342 -2.46335 0)
(1.99602 -2.49032 0)
(-0.0698847 -0.196551 0)
(-0.353024 -0.15173 0)
(-0.607002 -0.0886498 0)
(-0.760344 -0.037091 0)
(-0.827619 -0.000319801 0)
(-0.791924 -0.00852088 0)
(-0.654966 -0.0797483 0)
(-0.407992 -0.246181 0)
(-0.0604296 -0.478829 0)
(0.310142 -0.702229 0)
(0.718159 -1.10356 0)
(1.05601 -1.50719 0)
(1.30547 -1.81468 0)
(1.47272 -2.00732 0)
(1.57974 -2.11545 0)
(1.65245 -2.18004 0)
(1.70593 -2.2291 0)
(1.74367 -2.27341 0)
(1.76833 -2.31395 0)
(1.7881 -2.35199 0)
(1.81134 -2.39066 0)
(1.84136 -2.43051 0)
(1.8771 -2.46926 0)
(1.91707 -2.50473 0)
(1.96091 -2.53665 0)
(-0.0612738 -0.0194351 0)
(-0.332954 0.00100642 0)
(-0.562873 0.0457026 0)
(-0.708536 0.0534522 0)
(-0.75589 0.0126982 0)
(-0.665504 -0.110239 0)
(-0.436868 -0.311632 0)
(-0.134888 -0.557789 0)
(0.168112 -0.75984 0)
(0.527104 -1.0642 0)
(0.863708 -1.4356 0)
(1.13695 -1.76735 0)
(1.33292 -1.99521 0)
(1.46006 -2.12482 0)
(1.53949 -2.1932 0)
(1.59148 -2.23411 0)
(1.62882 -2.26704 0)
(1.65916 -2.3003 0)
(1.68861 -2.33734 0)
(1.72106 -2.37923 0)
(1.7573 -2.42415 0)
(1.79588 -2.46849 0)
(1.8355 -2.50962 0)
(1.87608 -2.54704 0)
(1.91894 -2.58202 0)
(-0.0118086 0.131509 0)
(-0.252284 0.174325 0)
(-0.481946 0.203916 0)
(-0.620325 0.168172 0)
(-0.633125 0.0349878 0)
(-0.485778 -0.181124 0)
(-0.267709 -0.461108 0)
(0.013032 -0.819652 0)
(0.330907 -1.09645 0)
(0.662169 -1.40799 0)
(0.95739 -1.7276 0)
(1.18288 -1.97907 0)
(1.33369 -2.13219 0)
(1.42596 -2.20941 0)
(1.48201 -2.24731 0)
(1.52001 -2.27249 0)
(1.55264 -2.2989 0)
(1.58756 -2.33218 0)
(1.62685 -2.37318 0)
(1.66875 -2.41897 0)
(1.71057 -2.46521 0)
(1.75084 -2.50895 0)
(1.78983 -2.54955 0)
(1.82928 -2.58803 0)
(1.87099 -2.62585 0)
(0.0136933 0.29756 0)
(-0.184255 0.369678 0)
(-0.382941 0.378909 0)
(-0.5026 0.287171 0)
(-0.492089 0.0931141 0)
(-0.382695 -0.173097 0)
(-0.150416 -0.618406 0)
(0.140635 -1.10152 0)
(0.456924 -1.427 0)
(0.767057 -1.71866 0)
(1.02389 -1.96998 0)
(1.2025 -2.14115 0)
(1.31127 -2.22967 0)
(1.37491 -2.26696 0)
(1.41676 -2.28626 0)
(1.45245 -2.30693 0)
(1.49051 -2.33596 0)
(1.5333 -2.37375 0)
(1.57837 -2.41721 0)
(1.62226 -2.46219 0)
(1.66324 -2.50588 0)
(1.7017 -2.54754 0)
(1.73939 -2.58784 0)
(1.77795 -2.62784 0)
(1.81866 -2.66846 0)
(0.0251498 0.478665 0)
(-0.111269 0.564284 0)
(-0.270411 0.543315 0)
(-0.387782 0.433356 0)
(-0.384698 0.240053 0)
(-0.292083 -0.0675926 0)
(-0.0130594 -0.783573 0)
(0.271965 -1.37435 0)
(0.574136 -1.72967 0)
(0.853125 -1.98258 0)
(1.06356 -2.16061 0)
(1.19505 -2.25909 0)
(1.26949 -2.29687 0)
(1.31617 -2.3092 0)
(1.35557 -2.32242 0)
(1.39687 -2.34627 0)
(1.44168 -2.37989 0)
(1.48782 -2.41945 0)
(1.53232 -2.46124 0)
(1.57362 -2.50296 0)
(1.6121 -2.54394 0)
(1.64917 -2.58454 0)
(1.68616 -2.62537 0)
(1.72418 -2.66698 0)
(1.76384 -2.7098 0)
(0.032597 0.674677 0)
(-0.028338 0.710018 0)
(-0.15313 0.657101 0)
(-0.282721 0.555765 0)
(-0.248825 0.405256 0)
(-0.144276 0.094094 0)
(0.14308 -0.935688 0)
(0.411167 -1.62833 0)
(0.684173 -1.99496 0)