/*--------------------------------*- C++ -*----------------------------------*\
  =========                 |
  \\      /  F ield         | OpenFOAM: The Open Source CFD Toolbox
   \\    /   O peration     | Website:  https://openfoam.org
    \\  /    A nd           | Version:  13
     \\/     M anipulation  |
\*---------------------------------------------------------------------------*/
FoamFile
{
    format      ascii;
    class       volScalarField;
    location    "16";
    object      p;
}
// * * * * * * * * * * * * * * * * * * * * * * * * * * * * * * * * * * * * * //

dimensions      [0 2 -2 0 0 0 0];

internalField   nonuniform List<scalar> 
6440
(
132.688
132.688
132.685
132.678
132.669
132.657
132.645
132.631
132.616
132.599
132.58
132.559
132.534
132.508
132.481
132.455
132.433
132.415
132.405
132.403
132.408
132.417
132.427
132.433
132.434
132.689
132.688
132.684
132.676
132.666
132.655
132.644
132.63
132.615
132.596
132.574
132.547
132.517
132.484
132.45
132.418
132.392
132.375
132.369
132.375
132.389
132.404
132.418
132.427
132.428
132.687
132.685
132.679
132.67
132.661
132.652
132.643
132.632
132.618
132.598
132.572
132.541
132.503
132.461
132.417
132.376
132.343
132.325
132.323
132.336
132.355
132.373
132.388
132.397
132.397
132.687
132.682
132.675
132.666
132.659
132.653
132.645
132.635
132.621
132.599
132.57
132.532
132.486
132.432
132.375
132.322
132.281
132.263
132.268
132.288
132.311
132.33
132.343
132.353
132.351
132.695
132.69
132.682
132.673
132.666
132.658
132.65
132.638
132.62
132.595
132.562
132.518
132.464
132.4
132.333
132.271
132.228
132.213
132.225
132.25
132.274
132.291
132.304
132.311
132.308
132.713
132.707
132.698
132.688
132.679
132.669
132.658
132.642
132.62
132.591
132.553
132.504
132.443
132.374
132.302
132.24
132.202
132.193
132.207
132.232
132.252
132.265
132.274
132.279
132.273
132.734
132.727
132.717
132.705
132.694
132.682
132.667
132.647
132.621
132.588
132.546
132.494
132.432
132.362
132.291
132.231
132.198
132.193
132.209
132.23
132.246
132.253
132.256
132.253
132.246
132.751
132.744
132.732
132.719
132.707
132.692
132.674
132.649
132.62
132.584
132.54
132.487
132.425
132.358
132.292
132.24
132.213
132.213
132.229
132.246
132.254
132.252
132.244
132.234
132.222
132.762
132.754
132.742
132.729
132.715
132.698
132.674
132.645
132.611
132.572
132.526
132.472
132.412
132.35
132.294
132.254
132.236
132.239
132.252
132.263
132.263
132.25
132.232
132.213
132.198
132.766
132.757
132.744
132.731
132.716
132.694
132.665
132.63
132.592
132.548
132.498
132.441
132.382
132.325
132.28
132.252
132.243
132.249
132.259
132.261
132.251
132.232
132.207
132.184
132.166
132.761
132.751
132.738
132.724
132.706
132.68
132.645
132.603
132.558
132.508
132.451
132.39
132.329
132.275
132.235
132.211
132.204
132.208
132.215
132.216
132.208
132.193
132.169
132.143
132.124
132.747
132.736
132.721
132.705
132.684
132.652
132.611
132.562
132.508
132.449
132.383
132.314
132.249
132.193
132.15
132.122
132.11
132.11
132.115
132.121
132.128
132.135
132.124
132.092
132.066
132.722
132.71
132.694
132.675
132.648
132.611
132.561
132.503
132.438
132.366
132.29
132.212
132.138
132.073
132.021
131.986
131.97
131.97
131.982
132.001
132.03
132.071
132.087
132.034
131.989
132.688
132.675
132.656
132.632
132.6
132.555
132.496
132.426
132.346
132.259
132.169
132.078
131.989
131.909
131.845
131.804
131.789
131.8
131.832
131.878
131.94
132.024
132.07
131.989
131.891
132.647
132.632
132.609
132.579
132.539
132.484
132.414
132.328
132.23
132.124
132.014
131.903
131.794
131.694
131.616
131.57
131.563
131.593
131.656
131.74
131.845
131.978
132.071
131.942
131.771
132.602
132.584
132.556
132.517
132.467
132.401
132.315
132.21
132.089
131.957
131.82
131.68
131.542
131.417
131.322
131.27
131.269
131.319
131.409
131.53
131.675
131.85
131.989
131.851
131.598
132.555
132.534
132.499
132.451
132.387
132.306
132.201
132.072
131.92
131.756
131.58
131.402
131.223
131.063
130.941
130.875
130.872
130.93
131.037
131.176
131.339
131.525
131.682
131.601
131.271
132.512
132.485
132.441
132.38
132.303
132.201
132.074
131.913
131.725
131.513
131.292
131.057
130.826
130.611
130.448
130.354
130.342
130.405
130.522
130.67
130.832
130.99
131.088
130.999
130.609
132.475
132.442
132.388
132.314
132.215
132.093
131.938
131.742
131.507
131.245
130.959
130.655
130.335
130.041
129.818
129.696
129.687
129.777
129.935
130.125
130.318
130.475
130.5
130.21
129.659
132.454
132.414
132.347
132.254
132.136
131.987
131.799
131.559
131.267
130.935
130.565
130.151
129.718
129.326
129.055
128.932
128.96
129.123
129.378
129.675
129.975
130.249
130.379
130.107
129.392
132.456
132.404
132.323
132.214
132.071
131.895
131.674
131.39
131.041
130.637
130.173
129.649
129.085
128.585
128.272
128.173
128.273
128.55
128.93
129.349
129.785
130.253
130.751
131.279
132.366
132.487
132.426
132.327
132.198
132.038
131.839
131.592
131.271
130.872
130.398
129.845
129.193
128.48
127.85
127.489
127.412
127.577
127.96
128.461
128.993
129.543
130.164
130.946
132.085
133.763
132.552
132.481
132.359
132.217
132.037
131.821
131.552
131.204
130.764
130.231
129.595
128.846
128.012
127.287
126.918
126.874
127.096
127.564
128.167
128.799
129.438
130.151
131.047
132.223
133.624
132.654
132.566
132.422
132.264
132.072
131.836
131.549
131.184
130.718
130.145
129.464
128.658
127.777
127.02
126.687
126.661
126.891
127.382
128.035
128.734
129.437
130.189
131.087
132.173
133.333
132.796
132.685
132.519
132.347
132.14
131.888
131.588
131.216
130.748
130.168
129.475
128.687
127.851
127.126
126.806
126.762
126.967
127.426
128.076
128.795
129.514
130.25
131.068
131.996
132.972
132.96
132.841
132.648
132.458
132.243
131.982
131.675
131.308
130.862
130.311
129.66
128.935
128.201
127.544
127.176
127.106
127.265
127.668
128.278
128.963
129.644
130.315
131.022
131.808
132.637
133.102
133.007
132.796
132.589
132.371
132.111
131.808
131.455
131.044
130.556
129.983
129.353
128.72
128.149
127.769
127.639
127.742
128.094
128.629
129.228
129.822
130.404
131.001
131.651
132.351
133.182
133.139
132.945
132.73
132.512
132.262
131.972
131.641
131.269
130.849
130.369
129.834
129.291
128.8
128.45
128.305
128.385
128.673
129.09
129.56
130.045
130.528
131.014
131.543
132.125
133.212
133.212
133.079
132.874
132.659
132.419
132.149
131.846
131.514
131.154
130.756
130.321
129.874
129.474
129.193
129.073
129.123
129.307
129.581
129.917
130.293
130.679
131.065
131.484
131.959
133.226
133.247
133.182
133.01
132.801
132.575
132.329
132.062
131.777
131.475
131.154
130.814
130.472
130.168
129.948
129.836
129.821
129.892
130.045
130.276
130.562
130.86
131.154
131.474
131.846
133.24
133.26
133.239
133.116
132.931
132.722
132.504
132.28
132.05
131.813
131.569
131.316
131.064
130.833
130.645
130.509
130.426
130.414
130.49
130.649
130.856
131.067
131.274
131.504
131.782
133.245
133.253
133.248
133.176
133.027
132.85
132.669
132.494
132.324
132.156
131.984
131.806
131.619
131.432
131.253
131.091
130.967
130.914
130.943
131.039
131.162
131.283
131.407
131.564
131.754
133.242
133.236
133.22
133.173
133.07
132.936
132.805
132.691
132.59
132.494
132.393
132.275
132.137
131.979
131.806
131.635
131.499
131.421
131.404
131.424
131.452
131.487
131.544
131.636
131.751
133.231
133.207
133.167
133.117
133.046
132.96
132.895
132.86
132.845
132.831
132.802
132.746
132.649
132.515
132.351
132.181
132.033
131.923
131.842
131.767
131.706
131.672
131.682
131.717
131.763
133.213
133.164
133.098
133.031
132.975
132.928
132.928
132.989
133.081
133.168
133.224
133.227
133.173
133.061
132.9
132.718
132.533
132.365
132.211
132.056
131.927
131.843
131.816
131.799
131.784
133.196
133.117
133.025
132.948
132.895
132.875
132.924
133.076
133.288
133.49
133.634
133.703
133.687
133.588
133.413
133.192
132.955
132.718
132.485
132.272
132.108
132.001
131.934
131.869
131.799
133.216
133.099
132.979
132.895
132.844
132.839
132.916
133.138
133.457
133.765
133.992
134.112
134.132
134.022
133.801
133.523
133.227
132.936
132.669
132.443
132.269
132.138
132.026
131.921
131.811
133.313
133.152
133.001
132.898
132.84
132.835
132.929
133.201
133.592
133.962
134.23
134.38
134.397
134.239
133.975
133.671
133.361
133.067
132.806
132.585
132.402
132.249
132.105
131.955
131.808
133.488
133.294
133.111
132.981
132.894
132.871
132.984
133.285
133.691
134.063
134.315
134.439
134.402
134.234
133.993
133.716
133.429
133.155
132.908
132.691
132.499
132.32
132.143
131.969
131.795
133.709
133.506
133.301
133.152
133.051
133.023
133.129
133.393
133.73
134.028
134.229
134.328
134.291
134.155
133.952
133.706
133.447
133.195
132.962
132.746
132.543
132.348
132.157
131.967
131.775
133.864
133.68
133.462
133.302
133.213
133.212
133.295
133.476
133.707
133.914
134.073
134.145
134.126
134.026
133.855
133.641
133.411
133.183
132.964
132.754
132.55
132.351
132.153
131.954
131.748
133.86
133.686
133.451
133.269
133.193
133.22
133.336
133.511
133.678
133.808
133.909
133.956
133.945
133.865
133.721
133.538
133.339
133.136
132.934
132.734
132.536
132.337
132.136
131.93
131.717
133.713
133.523
133.265
133.075
133.021
133.085
133.239
133.429
133.585
133.694
133.755
133.781
133.767
133.699
133.578
133.424
133.252
133.072
132.887
132.698
132.506
132.31
132.109
131.901
131.682
133.471
133.289
133.048
132.884
132.859
132.935
133.095
133.292
133.463
133.575
133.623
133.635
133.614
133.549
133.445
133.312
133.161
132.999
132.829
132.651
132.466
132.275
132.076
131.867
131.647
133.287
133.128
132.923
132.79
132.781
132.845
132.99
133.178
133.354
133.466
133.512
133.517
133.484
133.419
133.325
133.207
133.072
132.925
132.767
132.599
132.421
132.235
132.038
131.831
131.611
133.232
133.099
132.925
132.801
132.786
132.83
132.958
133.124
133.283
133.386
133.426
133.418
133.373
133.308
133.221
133.114
132.991
132.854
132.706
132.545
132.374
132.193
132
131.795
131.578
133.285
133.186
133.038
132.911
132.875
132.907
133.005
133.135
133.26
133.339
133.362
133.335
133.283
133.218
133.134
133.034
132.918
132.789
132.647
132.493
132.328
132.151
131.962
131.762
131.547
133.39
133.327
133.211
133.101
133.053
133.062
133.122
133.2
133.276
133.317
133.313
133.268
133.214
133.146
133.063
132.966
132.855
132.73
132.594
132.444
132.284
132.111
131.927
131.73
131.52
133.47
133.44
133.361
133.283
133.246
133.246
133.265
133.282
133.303
133.303
133.272
133.219
133.164
133.089
133.004
132.908
132.799
132.678
132.545
132.4
132.243
132.075
131.895
131.703
131.497
133.494
133.482
133.441
133.408
133.397
133.399
133.373
133.343
133.323
133.291
133.243
133.188
133.121
133.043
132.956
132.859
132.751
132.632
132.501
132.359
132.207
132.043
131.867
131.68
131.479
133.493
133.482
133.462
133.466
133.48
133.48
133.425
133.376
133.331
133.281
133.219
133.157
133.084
133.003
132.915
132.817
132.71
132.591
132.463
132.324
132.174
132.015
131.843
131.661
131.466
133.498
133.489
133.471
133.48
133.503
133.495
133.439
133.384
133.325
133.264
133.198
133.13
133.053
132.97
132.88
132.781
132.673
132.556
132.429
132.293
132.147
131.991
131.824
131.646
131.457
133.511
133.506
133.488
133.479
133.489
133.48
133.439
133.375
133.311
133.248
133.179
133.106
133.027
132.942
132.85
132.75
132.642
132.526
132.4
132.266
132.123
131.971
131.809
131.636
131.453
133.542
133.541
133.521
133.5
133.488
133.475
133.435
133.366
133.301
133.234
133.164
133.087
133.005
132.917
132.824
132.723
132.615
132.499
132.376
132.244
132.104
131.955
131.797
131.63
131.453
133.593
133.598
133.587
133.558
133.536
133.501
133.44
133.37
133.302
133.229
133.152
133.072
132.987
132.897
132.801
132.7
132.592
132.477
132.355
132.225
132.088
131.943
131.789
131.627
131.456
133.642
133.653
133.656
133.638
133.616
133.552
133.462
133.385
133.306
133.225
133.143
133.058
132.971
132.878
132.782
132.68
132.572
132.458
132.337
132.21
132.075
131.934
131.785
131.628
131.462
133.677
133.695
133.71
133.718
133.682
133.593
133.482
133.398
133.309
133.222
133.135
133.047
132.956
132.863
132.765
132.662
132.554
132.441
132.322
132.197
132.066
131.928
131.783
131.631
131.472
133.7
133.722
133.743
133.763
133.718
133.612
133.495
133.402
133.308
133.217
133.127
133.036
132.943
132.848
132.749
132.647
132.539
132.427
132.31
132.187
132.059
131.925
131.784
131.637
131.483
133.709
133.726
133.752
133.77
133.721
133.608
133.502
133.4
133.303
133.21
133.117
133.025
132.931
132.834
132.735
132.633
132.526
132.415
132.3
132.179
132.054
131.923
131.787
131.645
131.497
133.703
133.711
133.737
133.75
133.703
133.584
133.489
133.39
133.293
133.199
133.106
133.012
132.918
132.821
132.722
132.62
132.514
132.405
132.291
132.173
132.051
131.924
131.792
131.655
131.512
133.691
133.69
133.704
133.715
133.665
133.555
133.465
133.372
133.278
133.185
133.092
132.999
132.904
132.808
132.709
132.608
132.503
132.395
132.284
132.169
132.05
131.926
131.798
131.666
131.529
133.675
133.672
133.678
133.683
133.618
133.53
133.441
133.351
133.26
133.169
133.077
132.984
132.89
132.794
132.696
132.596
132.493
132.387
132.278
132.165
132.049
131.929
131.806
131.678
131.546
133.661
133.662
133.666
133.658
133.574
133.499
133.416
133.328
133.24
133.151
133.06
132.969
132.876
132.781
132.684
132.585
132.484
132.38
132.273
132.163
132.05
131.934
131.814
131.691
131.564
133.65
133.656
133.656
133.624
133.536
133.468
133.388
133.304
133.218
133.131
133.042
132.952
132.86
132.767
132.671
132.574
132.474
132.372
132.268
132.161
132.051
131.938
131.823
131.704
131.583
133.642
133.649
133.645
133.589
133.511
133.44
133.362
133.28
133.196
133.111
133.023
132.935
132.844
132.752
132.658
132.563
132.465
132.365
132.264
132.159
132.053
131.944
131.832
131.718
131.601
133.635
133.642
133.634
133.557
133.493
133.415
133.336
133.256
133.174
133.089
133.004
132.916
132.828
132.737
132.645
132.551
132.456
132.359
132.259
132.158
132.055
131.949
131.841
131.731
131.619
133.628
133.635
133.616
133.524
133.464
133.389
133.31
133.231
133.151
133.068
132.983
132.898
132.811
132.722
132.632
132.54
132.447
132.352
132.255
132.157
132.057
131.954
131.85
131.745
131.637
133.617
133.625
133.585
133.497
133.434
133.362
133.285
133.207
133.127
133.046
132.963
132.878
132.793
132.706
132.618
132.528
132.437
132.345
132.251
132.156
132.059
131.96
131.859
131.757
131.654
133.601
133.612
133.553
133.48
133.408
133.335
133.259
133.182
133.103
133.023
132.941
132.859
132.775
132.69
132.604
132.517
132.428
132.338
132.247
132.154
132.06
131.965
131.868
131.77
131.671
133.588
133.6
133.522
133.463
133.384
133.308
133.233
133.157
133.079
133
132.92
132.839
132.757
132.674
132.589
132.504
132.418
132.331
132.242
132.153
132.062
131.97
131.876
131.782
131.687
133.581
133.591
133.491
133.436
133.358
133.281
133.207
133.13
133.053
132.976
132.897
132.818
132.738
132.657
132.575
132.492
132.408
132.323
132.237
132.151
132.063
131.974
131.884
131.794
131.702
133.582
133.577
133.464
133.408
133.331
133.253
133.178
133.103
133.027
132.951
132.874
132.796
132.718
132.639
132.559
132.479
132.398
132.315
132.232
132.148
132.064
131.978
131.892
131.805
131.717
133.581
133.556
133.441
133.377
133.3
133.223
133.149
133.074
133
132.925
132.85
132.774
132.698
132.621
132.544
132.466
132.387
132.307
132.227
132.146
132.064
131.982
131.899
131.815
131.731
133.566
133.525
133.417
133.343
133.267
133.191
133.117
133.044
132.971
132.898
132.825
132.752
132.678
132.603
132.528
132.452
132.376
132.299
132.221
132.143
132.064
131.985
131.905
131.825
131.744
133.537
133.482
133.385
133.305
133.23
133.155
133.083
133.012
132.941
132.87
132.799
132.728
132.656
132.584
132.512
132.438
132.365
132.29
132.215
132.14
132.064
131.988
131.911
131.834
131.757
133.492
133.425
133.341
133.261
133.188
133.116
133.047
132.978
132.909
132.841
132.773
132.704
132.635
132.565
132.495
132.424
132.353
132.281
132.209
132.136
132.063
131.99
131.916
131.842
131.769
133.429
133.356
133.285
133.211
133.142
133.074
133.008
132.942
132.877
132.811
132.746
132.679
132.613
132.546
132.478
132.41
132.341
132.272
132.203
132.133
132.062
131.992
131.921
131.85
131.779
133.35
133.282
133.223
133.156
133.093
133.03
132.967
132.905
132.843
132.78
132.718
132.654
132.59
132.526
132.461
132.395
132.329
132.263
132.196
132.129
132.061
131.993
131.925
131.857
131.79
133.266
133.209
133.158
133.099
133.042
132.984
132.926
132.867
132.808
132.749
132.689
132.629
132.568
132.506
132.444
132.381
132.317
132.253
132.189
132.124
132.059
131.994
131.929
131.864
131.799
133.184
133.137
133.094
133.042
132.991
132.937
132.884
132.829
132.774
132.718
132.661
132.603
132.545
132.486
132.426
132.366
132.305
132.244
132.182
132.12
132.057
131.995
131.932
131.87
131.807
133.106
133.068
133.031
132.986
132.94
132.891
132.842
132.791
132.739
132.687
132.633
132.578
132.523
132.466
132.409
132.351
132.293
132.234
132.175
132.115
132.055
131.995
131.935
131.875
131.815
133.034
133.003
132.972
132.932
132.891
132.847
132.802
132.754
132.706
132.656
132.605
132.553
132.5
132.447
132.392
132.337
132.281
132.224
132.167
132.11
132.052
131.995
131.937
131.88
131.822
132.968
132.942
132.916
132.881
132.845
132.805
132.763
132.719
132.674
132.627
132.579
132.529
132.479
132.428
132.376
132.323
132.269
132.215
132.16
132.105
132.05
131.994
131.939
131.884
131.829
132.908
132.887
132.864
132.834
132.801
132.765
132.727
132.686
132.643
132.599
132.554
132.507
132.459
132.41
132.36
132.309
132.258
132.206
132.153
132.1
132.047
131.994
131.941
131.888
131.835
132.854
132.836
132.817
132.79
132.761
132.728
132.692
132.654
132.615
132.573
132.53
132.485
132.44
132.393
132.345
132.296
132.247
132.197
132.147
132.096
132.045
131.994
131.943
131.892
131.841
132.806
132.79
132.774
132.749
132.724
132.693
132.661
132.625
132.588
132.548
132.507
132.465
132.421
132.377
132.331
132.284
132.237
132.189
132.14
132.091
132.042
131.993
131.944
131.895
131.846
132.762
132.749
132.735
132.713
132.689
132.661
132.631
132.598
132.563
132.525
132.486
132.446
132.404
132.362
132.318
132.273
132.227
132.181
132.134
132.087
132.04
131.993
131.945
131.898
131.85
132.724
132.711
132.699
132.679
132.658
132.632
132.603
132.572
132.539
132.504
132.467
132.428
132.388
132.347
132.305
132.262
132.218
132.174
132.129
132.083
132.038
131.992
131.946
131.9
131.855
132.689
132.678
132.667
132.648
132.629
132.604
132.578
132.548
132.517
132.483
132.448
132.411
132.373
132.334
132.293
132.252
132.21
132.167
132.123
132.079
132.035
131.991
131.947
131.902
131.858
132.659
132.649
132.639
132.621
132.603
132.58
132.555
132.527
132.497
132.465
132.431
132.396
132.359
132.321
132.282
132.242
132.201
132.16
132.118
132.075
132.033
131.99
131.947
131.904
131.861
132.633
132.624
132.615
132.597
132.58
132.558
132.534
132.507
132.478
132.448
132.415
132.381
132.346
132.309
132.272
132.233
132.194
132.153
132.113
132.072
132.03
131.988
131.947
131.905
131.863
132.611
132.602
132.594
132.577
132.561
132.539
132.516
132.49
132.462
132.433
132.401
132.368
132.334
132.299
132.262
132.225
132.186
132.147
132.108
132.068
132.028
131.987
131.946
131.906
131.865
132.593
132.585
132.577
132.561
132.545
132.524
132.501
132.476
132.449
132.42
132.389
132.357
132.324
132.29
132.254
132.218
132.18
132.142
132.104
132.065
132.025
131.986
131.946
131.907
131.867
132.581
132.572
132.565
132.548
132.532
132.512
132.489
132.464
132.438
132.41
132.38
132.348
132.316
132.282
132.247
132.212
132.175
132.138
132.1
132.062
132.024
131.985
131.946
131.908
131.869
132.574
132.564
132.557
132.54
132.524
132.503
132.48
132.456
132.43
132.402
132.372
132.341
132.309
132.276
132.242
132.207
132.171
132.135
132.098
132.06
132.022
131.985
131.946
131.909
131.871
132.571
132.561
132.553
132.535
132.518
132.497
132.474
132.45
132.424
132.396
132.367
132.336
132.304
132.272
132.238
132.203
132.168
132.132
132.096
132.059
132.022
131.984
131.947
131.91
131.873
132.571
132.56
132.553
132.533
132.515
132.494
132.471
132.446
132.419
132.392
132.362
132.332
132.301
132.268
132.235
132.201
132.166
132.13
132.094
132.058
132.021
131.984
131.947
131.911
131.874
132.579
132.564
132.558
132.537
132.516
132.493
132.468
132.443
132.416
132.388
132.359
132.329
132.298
132.265
132.232
132.198
132.164
132.129
132.093
132.057
132.021
131.984
131.948
131.911
131.875
132.618
132.584
132.568
132.542
132.517
132.492
132.467
132.441
132.414
132.386
132.357
132.327
132.296
132.264
132.231
132.197
132.163
132.128
132.092
132.057
132.02
131.984
131.948
131.912
131.876
132.694
132.615
132.575
132.545
132.518
132.492
132.467
132.44
132.413
132.385
132.356
132.326
132.295
132.263
132.23
132.197
132.162
132.127
132.092
132.056
132.02
131.984
131.948
131.912
131.876
136.767
136.762
136.756
136.749
136.741
136.731
136.719
136.704
136.689
136.674
136.663
136.656
136.656
136.663
136.68
136.703
136.73
136.753
136.766
136.764
136.749
136.728
136.709
136.701
136.702
136.785
136.779
136.77
136.761
136.749
136.734
136.715
136.693
136.671
136.65
136.634
136.622
136.618
136.622
136.636
136.657
136.683
136.71
136.729
136.736
136.728
136.71
136.696
136.692
136.695
136.805
136.798
136.785
136.767
136.746
136.721
136.693
136.663
136.633
136.606
136.584
136.568
136.561
136.562
136.572
136.591
136.615
136.643
136.669
136.688
136.696
136.693
136.686
136.685
136.687
136.811
136.804
136.785
136.759
136.728
136.692
136.653
136.611
136.57
136.532
136.501
136.479
136.468
136.467
136.477
136.496
136.522
136.554
136.589
136.622
136.651
136.671
136.681
136.683
136.681
136.809
136.8
136.775
136.742
136.703
136.656
136.604
136.549
136.493
136.442
136.4
136.371
136.357
136.357
136.368
136.388
136.419
136.458
136.501
136.547
136.592
136.634
136.666
136.679
136.677
136.81
136.797
136.764
136.724
136.677
136.621
136.556
136.486
136.416
136.352
136.3
136.265
136.249
136.248
136.26
136.284
136.32
136.366
136.417
136.472
136.529
136.584
136.635
136.669
136.673
136.831
136.809
136.761
136.712
136.656
136.591
136.514
136.43
136.346
136.271
136.211
136.169
136.146
136.14
136.152
136.179
136.221
136.275
136.335
136.397
136.461
136.523
136.584
136.637
136.656
136.867
136.842
136.778
136.712
136.646
136.57
136.481
136.382
136.285
136.198
136.129
136.077
136.042
136.028
136.035
136.064
136.112
136.173
136.241
136.312
136.382
136.45
136.514
136.575
136.608
136.9
136.883
136.816
136.736
136.656
136.565
136.459
136.345
136.233
136.133
136.051
135.987
135.939
135.911
135.909
135.934
135.984
136.052
136.131
136.213
136.293
136.369
136.438
136.499
136.535
136.915
136.916
136.866
136.78
136.687
136.582
136.459
136.326
136.195
136.079
135.984
135.907
135.843
135.796
135.774
135.787
135.836
135.915
136.009
136.107
136.203
136.291
136.368
136.431
136.467
136.899
136.91
136.892
136.829
136.733
136.617
136.484
136.336
136.186
136.048
135.934
135.843
135.766
135.696
135.649
135.64
135.685
135.778
135.894
136.014
136.129
136.233
136.322
136.389
136.429
136.849
136.85
136.856
136.84
136.771
136.664
136.53
136.377
136.213
136.054
135.916
135.804
135.71
135.622
135.554
135.528
135.568
135.673
135.811
135.956
136.093
136.214
136.316
136.391
136.439
136.793
136.765
136.765
136.781
136.766
136.701
136.593
136.447
136.279
136.105
135.941
135.804
135.689
135.579
135.491
135.469
135.508
135.615
135.775
135.947
136.109
136.25
136.365
136.45
136.507
136.763
136.702
136.675
136.689
136.715
136.711
136.656
136.543
136.384
136.202
136.018
135.853
135.711
135.578
135.471
135.437
135.473
135.594
135.783
135.987
136.179
136.344
136.477
136.571
136.633
136.77
136.686
136.637
136.635
136.665
136.703
136.707
136.649
136.527
136.351
136.15
135.952
135.768
135.604
135.48
135.432
135.474
135.621
135.842
136.08
136.303
136.494
136.646
136.754
136.813
136.803
136.706
136.646
136.642
136.666
136.718
136.758
136.744
136.659
136.503
136.295
136.071
135.851
135.653
135.513
135.467
135.529
135.705
135.952
136.216
136.465
136.682
136.856
136.977
137.041
136.839
136.745
136.674
136.67
136.694
136.74
136.79
136.81
136.766
136.639
136.439
136.195
135.94
135.718
135.578
135.547
135.637
135.834
136.094
136.372
136.638
136.874
137.067
137.207
137.281
136.848
136.771
136.7
136.703
136.728
136.765
136.798
136.811
136.789
136.702
136.527
136.281
136.021
135.807
135.684
135.672
135.776
135.975
136.231
136.507
136.779
137.028
137.236
137.389
137.474
136.792
136.759
136.708
136.735
136.783
136.826
136.853
136.844
136.796
136.7
136.543
136.329
136.101
135.913
135.807
135.8
135.896
136.078
136.317
136.585
136.856
137.112
137.334
137.501
137.59
136.581
136.667
136.656
136.718
136.795
136.858
136.892
136.885
136.834
136.735
136.582
136.384
136.175
135.999
135.89
135.869
135.941
136.097
136.317
136.572
136.846
137.113
137.351
137.535
137.636
135.593
136.244
136.483
136.618
136.727
136.803
136.838
136.832
136.784
136.687
136.536
136.346
136.148
135.979
135.869
135.839
135.897
136.034
136.236
136.484
136.755
137.03
137.28
137.479
137.594
135.342
135.884
136.228
136.433
136.569
136.652
136.685
136.671
136.613
136.51
136.362
136.183
136
135.842
135.738
135.706
135.753
135.875
136.061
136.296
136.563
136.84
137.097
137.306
137.435
134.81
135.465
135.881
136.148
136.319
136.42
136.46
136.445
136.38
136.27
136.123
135.953
135.779
135.627
135.521
135.478
135.506
135.602
135.762
135.974
136.224
136.492
136.748
136.956
137.082
134.318
135.003
135.473
135.788
135.99
136.107
136.153
136.138
136.07
135.959
135.814
135.649
135.48
135.328
135.212
135.149
135.146
135.204
135.322
135.492
135.704
135.94
136.172
136.363
136.492
133.846
134.53
135.029
135.375
135.601
135.732
135.786
135.774
135.709
135.599
135.455
135.289
135.116
134.953
134.816
134.72
134.67
134.67
134.722
134.819
134.954
135.112
135.272
135.397
135.452
133.417
134.07
134.572
134.932
135.171
135.311
135.37
135.362
135.297
135.185
135.038
134.865
134.68
134.495
134.323
134.176
134.06
133.977
133.926
133.905
133.903
133.912
133.918
133.903
133.916
133.037
133.64
134.123
134.479
134.718
134.859
134.918
134.908
134.841
134.724
134.568
134.382
134.173
133.954
133.732
133.515
133.305
133.101
132.899
132.689
132.457
132.183
131.845
131.428
130.9
132.714
133.251
133.697
134.031
134.257
134.389
134.441
134.425
134.349
134.222
134.051
133.841
133.599
133.331
133.04
132.728
132.392
132.024
131.603
131.111
130.503
129.741
128.752
127.599
126.127
132.45
132.912
133.305
133.602
133.802
133.914
133.951
133.921
133.83
133.685
133.49
133.247
132.959
132.627
132.248
131.816
131.318
130.731
130.016
129.113
127.921
126.318
123.952
120.777
114.805
132.244
132.625
132.953
133.199
133.361
133.445
133.458
133.406
133.293
133.122
132.894
132.609
132.263
131.853
131.367
130.79
130.092
129.235
128.136
126.691
124.664
121.838
117.152
111.492
92.7445
132.093
132.388
132.641
132.827
132.943
132.99
132.972
132.891
132.749
132.544
132.275
131.937
131.524
131.022
130.415
129.672
128.748
127.573
126.03
123.927
120.805
116.166
106.785
90.9373
32.3219
131.98
132.194
132.368
132.489
132.553
132.558
132.502
132.386
132.207
131.961
131.645
131.247
130.757
130.156
129.416
128.497
127.333
125.831
123.824
121.067
116.987
110.845
100.067
82.5056
52.7494
131.892
132.03
132.129
132.186
132.195
132.153
132.056
131.899
131.678
131.387
131.017
130.555
129.984
129.279
128.404
127.307
125.91
124.096
121.686
118.399
113.769
107.105
97.4135
82.9173
65.3652
131.827
131.889
131.919
131.915
131.871
131.781
131.639
131.439
131.174
130.834
130.408
129.879
129.225
128.417
127.411
126.146
124.534
122.447
119.697
116.014
110.995
104.07
94.5426
81.167
64.032
131.776
131.767
131.736
131.677
131.582
131.445
131.258
131.013
130.702
130.312
129.83
129.235
128.503
127.598
126.471
125.054
123.252
120.931
117.902
113.898
108.554
101.364
91.7281
78.8364
62.5076
131.731
131.665
131.58
131.47
131.327
131.145
130.914
130.626
130.27
129.832
129.296
128.641
127.836
126.844
125.611
124.065
122.104
119.591
116.334
112.074
106.46
99.0337
89.277
76.589
60.7889
131.697
131.579
131.446
131.29
131.105
130.881
130.61
130.282
129.884
129.402
128.818
128.108
127.242
126.177
124.858
123.208
121.123
118.462
115.03
110.567
104.718
97.0221
86.9634
73.8957
57.6949
131.658
131.5
131.329
131.136
130.913
130.653
130.346
129.981
129.547
129.027
128.403
127.649
126.733
125.613
124.23
122.507
120.336
117.574
114.02
109.407
103.357
95.3755
84.892
70.9535
53.5926
131.617
131.43
131.227
131.003
130.749
130.458
130.121
129.726
129.261
128.711
128.055
127.27
126.321
125.165
123.746
121.983
119.769
116.959
113.334
108.627
102.373
94.0836
82.9467
67.6345
48.3599
131.576
131.366
131.139
130.89
130.611
130.295
129.933
129.515
129.028
128.456
127.78
126.975
126.009
124.841
123.414
121.651
119.446
116.653
113.044
108.326
101.894
93.2454
80.6404
63.0331
39.0013
131.534
131.307
131.062
130.794
130.496
130.162
129.782
129.347
128.845
128.26
127.575
126.765
125.801
124.643
123.238
121.517
119.381
116.692
113.232
108.707
102.448
93.8254
79.7462
59.7418
22.8143
131.493
131.253
130.996
130.714
130.403
130.056
129.665
129.22
128.711
128.122
127.438
126.636
125.69
124.564
123.211
121.571
119.559
117.059
113.898
109.821
104.344
96.8781
84.8267
67.3676
19.5149
131.452
131.205
130.939
130.649
130.33
129.976
129.579
129.131
128.621
128.038
127.365
126.583
125.669
124.593
123.316
121.787
119.942
117.692
114.912
111.436
106.995
101.271
93.4908
84.073
65.1142
131.413
131.162
130.892
130.598
130.275
129.919
129.521
129.076
128.573
128.001
127.348
126.596
125.726
124.714
123.528
122.132
120.476
118.501
116.13
113.264
109.781
105.542
100.362
94.2661
86.704
131.377
131.126
130.854
130.559
130.237
129.882
129.489
129.051
128.56
128.007
127.38
126.666
125.848
124.908
123.824
122.567
121.107
119.405
117.422
115.113
112.442
109.401
106.046
102.649
99.7545
131.345
131.095
130.825
130.533
130.214
129.864
129.479
129.053
128.578
128.048
127.452
126.78
126.021
125.158
124.177
123.06
121.788
120.34
118.702
116.86
114.822
112.627
110.372
108.287
106.735
131.317
131.07
130.805
130.517
130.204
129.863
129.489
129.078
128.623
128.119
127.557
126.931
126.231
125.446
124.567
123.582
122.483
121.261
119.915
118.452
116.896
115.301
113.766
112.461
111.611
131.294
131.053
130.792
130.511
130.207
129.876
129.515
129.121
128.689
128.213
127.688
127.108
126.467
125.758
124.974
124.112
123.167
122.139
121.035
119.87
118.674
117.495
116.415
115.544
115.011
131.277
131.041
130.787
130.514
130.22
129.901
129.556
129.18
128.771
128.325
127.837
127.303
126.719
126.081