/*--------------------------------*- C++ -*----------------------------------*\
  =========                 |
  \\      /  F ield         | OpenFOAM: The Open Source CFD Toolbox
   \\    /   O peration     | Website:  https://openfoam.org
    \\  /    A nd           | Version:  13
     \\/     M anipulation  |
\*---------------------------------------------------------------------------*/
FoamFile
{
    format      ascii;
    class       surfaceScalarField;
    location    "16";
    object      phi;
}
// * * * * * * * * * * * * * * * * * * * * * * * * * * * * * * * * * * * * * //

dimensions      [0 3 -1 0 0 0 0];

internalField   nonuniform List<scalar> 
12590
(
2.49463e-13
-2.49467e-13
5.48939e-13
-2.99479e-13
8.48072e-13
-2.99137e-13
1.18799e-12
-3.39923e-13
1.56218e-12
-3.74191e-13
1.9274e-12
-3.65232e-13
2.23748e-12
-3.10079e-13
2.49563e-12
-2.58151e-13
2.68523e-12
-1.89607e-13
2.79622e-12
-1.10994e-13
2.8215e-12
-2.52846e-14
2.75909e-12
6.24049e-14
2.61629e-12
1.42792e-13
2.41154e-12
2.04746e-13
2.15127e-12
2.60266e-13
1.84527e-12
3.05997e-13
1.50191e-12
3.43363e-13
1.1415e-12
3.60403e-13
7.78725e-13
3.62771e-13
4.24952e-13
3.53769e-13
7.8965e-14
3.45984e-13
-2.61864e-13
3.40826e-13
-5.30626e-13
2.68758e-13
-4.84403e-13
-4.62265e-14
-4.84404e-13
2.70329e-13
-5.19801e-13
6.4502e-13
-6.74177e-13
1.05827e-12
-7.12394e-13
1.50805e-12
-7.8971e-13
1.95326e-12
-8.19409e-13
2.36143e-12
-7.73409e-13
2.75451e-12
-7.03167e-13
3.09127e-12
-5.94918e-13
3.38066e-12
-4.78998e-13
3.60933e-12
-3.3967e-13
3.77252e-12
-1.88483e-13
3.86559e-12
-3.06688e-14
3.87936e-12
1.29018e-13
3.7987e-12
2.854e-13
3.62424e-12
4.34715e-13
3.34674e-12
5.83491e-13
2.97002e-12
7.20079e-13
2.50352e-12
8.26898e-13
1.97027e-12
8.96014e-13
1.4058e-12
9.18236e-13
8.61998e-13
8.89782e-13
4.74121e-13
7.28699e-13
1.42431e-13
6.00442e-13
-5.35784e-14
1.49778e-13
-5.37983e-13
2.5499e-13
-7.74797e-13
6.07365e-13
-1.02656e-12
1.00581e-12
-1.11084e-12
1.44179e-12
-1.2257e-12
1.87962e-12
-1.25724e-12
2.3073e-12
-1.20109e-12
2.70935e-12
-1.10523e-12
3.07942e-12
-9.64993e-13
3.3911e-12
-7.90685e-13
3.65697e-12
-6.05547e-13
3.86098e-12
-3.92503e-13
3.98187e-12
-1.51568e-13
3.99574e-12
1.15142e-13
3.87916e-12
4.01977e-13
3.61553e-12
6.98337e-13
3.21237e-12
9.86646e-13
2.69177e-12
1.24066e-12
2.0916e-12
1.42707e-12
1.4643e-12
1.52331e-12
8.64418e-13
1.51811e-12
3.77007e-13
1.37719e-12
4.53609e-15
1.10116e-12
-8.72791e-14
6.92252e-13
-9.88014e-14
1.61295e-13
-6.36785e-13
2.22942e-13
-9.97746e-13
4.74297e-13
-1.27792e-12
7.49796e-13
-1.38635e-12
1.05433e-12
-1.53025e-12
1.37631e-12
-1.57923e-12
1.70335e-12
-1.52814e-12
1.99518e-12
-1.39706e-12
2.25551e-12
-1.22533e-12
2.50291e-12
-1.0381e-12
2.7105e-12
-8.13139e-13
2.87062e-12
-5.52636e-13
2.96079e-12
-2.41745e-13
2.9551e-12
1.20828e-13
2.83069e-12
5.26379e-13
2.57479e-12
9.54233e-13
2.18974e-12
1.37169e-12
1.69623e-12
1.73416e-12
1.1416e-12
1.9817e-12
6.11504e-13
2.05339e-12
1.71565e-13
1.95804e-12
-1.7553e-13
1.72428e-12
-3.43521e-13
1.26915e-12
-2.79849e-13
6.28574e-13
-1.39974e-13
2.1414e-14
-7.7676e-13
1.76785e-13
-1.17454e-12
3.02571e-13
-1.40372e-12
4.18902e-13
-1.50269e-12
5.39271e-13
-1.65063e-12
6.53668e-13
-1.69364e-12
7.57306e-13
-1.63179e-12
8.77314e-13
-1.51707e-12
1.00449e-12
-1.35252e-12
1.06854e-12
-1.10216e-12
1.13901e-12
-8.83621e-13
1.18547e-12
-5.99103e-13
1.19329e-12
-2.49569e-13
1.14529e-12
1.68819e-13
1.02835e-12
6.43316e-13
8.37566e-13
1.14501e-12
5.75376e-13
1.63387e-12
2.50329e-13
2.0592e-12
-1.13554e-13
2.34557e-12
-4.47155e-13
2.38699e-12
-6.72776e-13
2.18366e-12
-7.68079e-13
1.81957e-12
-7.05385e-13
1.20645e-12
-5.21722e-13
4.44904e-13
-1.57867e-13
-3.42448e-13
-9.34628e-13
1.25959e-13
-1.30051e-12
1.23236e-13
-1.40101e-12
7.59979e-14
-1.45546e-12
2.62457e-15
-1.57726e-12
-1.02264e-13
-1.58876e-12
-2.27852e-13
-1.50621e-12
-3.50124e-13
-1.39481e-12
-4.30592e-13
-1.27206e-12
-4.45177e-13
-1.08758e-12
-5.50259e-13
-7.78548e-13
-6.32177e-13
-5.17195e-13
-7.04007e-13
-1.77748e-13
-7.82891e-13
2.47695e-13
-8.8462e-13
7.45036e-13
-1.01098e-12
1.27136e-12
-1.14387e-12
1.76675e-12
-1.26901e-12
2.18434e-12
-1.39076e-12
2.46732e-12
-1.48343e-12
2.47964e-12
-1.46166e-12
2.16188e-12
-1.30396e-12
1.66187e-12
-1.05838e-12
9.60861e-13
-5.88094e-13
-2.53869e-14
-1.46828e-13
-7.83721e-13
-1.08146e-12
7.23133e-14
-1.37283e-12
-6.24544e-14
-1.26625e-12
-2.80744e-13
-1.23719e-12
-5.62587e-13
-1.29543e-12
-9.04524e-13
-1.24683e-12
-1.27619e-12
-1.13456e-12
-1.6464e-12
-1.02462e-12
-1.97362e-12
-9.44859e-13
-2.19294e-12
-8.68267e-13
-2.31377e-12
-6.57732e-13
-2.51182e-12
-3.19148e-13
-2.64499e-12
-4.45942e-14
-2.71989e-12
3.22591e-13
-2.74877e-12
7.73899e-13
-2.75031e-12
1.2729e-12
-2.73398e-12
1.75041e-12
-2.6649e-12
2.11525e-12
-2.53394e-12
2.33636e-12
-2.38337e-12
2.32906e-12
-2.15756e-12
1.93607e-12
-1.80678e-12
1.31108e-12
-1.30165e-12
4.55732e-13
-6.19238e-13
-7.0781e-13
-1.77559e-13
-1.22541e-12
-1.25902e-12
1.19137e-14
-1.38476e-12
-2.56951e-13
-9.974e-13
-6.45867e-13
-8.48287e-13
-1.13058e-12
-8.10735e-13
-1.69785e-12
-6.79578e-13
-2.31807e-12
-5.14352e-13
-2.92553e-12
-4.17171e-13
-3.45896e-12
-4.11444e-13
-3.87341e-12
-4.53825e-13
-4.08218e-12
-4.48977e-13
-4.33863e-12
-6.27118e-14
-4.49254e-12
1.09307e-13
-4.53802e-12
3.68063e-13
-4.47257e-12
7.08437e-13
-4.30677e-12
1.10709e-12
-4.07625e-12
1.51988e-12
-3.81754e-12
1.85652e-12
-3.48143e-12
2.00024e-12
-3.09364e-12
1.94126e-12
-2.70376e-12
1.54618e-12
-2.23514e-12
8.42454e-13
-1.42595e-12
-3.5347e-13
-6.78555e-13
-1.45521e-12
-1.61819e-13
-1.74215e-12
-1.42084e-12
-5.67405e-14
-1.32803e-12
-4.60266e-13
-5.93892e-13
-1.02472e-12
-2.83854e-13
-1.71857e-12
-1.16894e-13
-2.53449e-12
1.36321e-13
-3.37657e-12
3.27705e-13
-4.16219e-12
3.68435e-13
-4.84867e-12
2.75024e-13
-5.41659e-12
1.1408e-13
-5.82592e-12
-3.96582e-14
-5.90472e-12
1.60746e-14
-6.06257e-12
2.67147e-13
-6.02941e-12
3.34883e-13
-5.84734e-12
5.26361e-13
-5.52603e-12
7.85772e-13
-5.08044e-12
1.07428e-12
-4.57799e-12
1.35406e-12
-4.0701e-12
1.49235e-12
-3.48537e-12
1.35651e-12
-2.92506e-12
9.85865e-13
-2.37434e-12
2.91722e-13
-1.51315e-12
-1.21466e-12
-7.6638e-13
-2.20199e-12
-9.71742e-14
-2.41137e-12
-1.51802e-12
-1.18192e-13
-1.20986e-12
-6.49414e-13
-6.26909e-14
-1.37984e-12
4.46555e-13
-2.26909e-12
7.72332e-13
-3.25138e-12
1.11859e-12
-4.22865e-12
1.30495e-12
-5.11178e-12
1.25155e-12
-5.85625e-12
1.01948e-12
-6.44194e-12
6.99755e-13
-6.8589e-12
3.77283e-13
-6.99729e-12
1.54449e-13
-7.14994e-12
4.19778e-13
-7.05811e-12
2.43047e-13
-6.7089e-12
1.77133e-13
-6.20681e-12
2.83673e-13
-5.55686e-12
4.24308e-13
-4.81934e-12
6.16526e-13
-4.08379e-12
7.5679e-13
-3.40509e-12
6.77804e-13
-2.67962e-12
2.60381e-13
-2.08754e-12
-3.00365e-13
-1.31368e-12
-1.98854e-12
-6.54782e-13
-2.8609e-12
-7.11664e-14
-2.99499e-12
-1.58918e-12
-1.74827e-13
-1.03505e-12
-8.27397e-13
5.89855e-13
-1.70526e-12
1.3244e-12
-2.74942e-12
1.81646e-12
-3.85924e-12
2.22839e-12
-4.87337e-12
2.31906e-12
-5.72392e-12
2.10208e-12
-6.40775e-12
1.70328e-12
-6.92972e-12
1.22171e-12
-7.27949e-12
7.2703e-13
-7.42866e-12
3.036e-13
-7.33208e-12
3.2318e-13
-7.2001e-12
1.11051e-13
-6.77961e-12
-2.43371e-13
-6.07247e-12
-4.23483e-13
-5.21072e-12
-4.37454e-13
-4.27244e-12
-3.21772e-13
-3.34353e-12
-1.72129e-13
-2.54352e-12
-1.22219e-13
-1.91262e-12
-3.70532e-13
-1.28128e-12
-9.31712e-13
-8.61949e-13
-2.40788e-12
-4.33293e-13
-3.28957e-12
-6.62747e-14
-3.36202e-12
-1.65546e-12
-2.08476e-13
-8.26598e-13
-9.44105e-13
1.32546e-12
-1.9463e-12
2.32656e-12
-3.09837e-12
2.96851e-12
-4.16949e-12
3.29948e-12
-5.0496e-12
3.19914e-12
-5.79956e-12
2.85201e-12
-6.35863e-12
2.26233e-12
-6.71195e-12
1.57499e-12
-6.86806e-12
8.83119e-13
-6.87678e-12
3.12293e-13
-6.6433e-12
8.96814e-14
-6.18785e-12
-3.44422e-13
-5.56512e-12
-8.6612e-13
-4.75441e-12
-1.2342e-12
-3.75644e-12
-1.43545e-12
-2.68537e-12
-1.39286e-12
-1.64626e-12
-1.21125e-12
-7.5723e-13
-1.01127e-12
-1.79581e-13
-9.48193e-13
1.09776e-13
-1.22108e-12
1.37977e-13
-2.43609e-12
2.32134e-14
-3.17482e-12
5.49136e-14
-3.39373e-12
-1.60055e-12
-2.27385e-13
-5.99239e-13
-1.02858e-12
2.12663e-12
-2.07161e-12
3.36956e-12
-3.1584e-12
4.05527e-12
-4.05214e-12
4.19319e-12
-4.81601e-12
3.96298e-12
-5.28478e-12
3.32075e-12
-5.44517e-12
2.42269e-12
-5.37391e-12
1.5037e-12
-5.17944e-12
6.88615e-13
-4.90397e-12
3.67991e-14
-4.54696e-12
-2.67355e-13
-3.84839e-12
-1.04302e-12
-3.01999e-12
-1.69455e-12
-2.04885e-12
-2.20537e-12
-1.00422e-12
-2.4801e-12
1.82584e-13
-2.57968e-12
1.23497e-12
-2.26365e-12
2.0212e-12
-1.79752e-12
2.49985e-12
-1.42686e-12
2.45884e-12
-1.18008e-12
1.8955e-12
-1.87277e-12
1.02789e-12
-2.30722e-12
5.42664e-13
-2.90852e-12
-1.05789e-12
-2.10535e-13
-3.88731e-13
-9.80108e-13
2.89617e-12
-1.91028e-12
4.2997e-12
-2.80211e-12
4.94707e-12
-3.47265e-12
4.86369e-12
-3.80607e-12
4.29637e-12
-3.75088e-12
3.26552e-12
-3.39379e-12
2.06556e-12
-2.79054e-12
9.0042e-13
-1.97081e-12
-1.31148e-13
-1.12977e-12
-8.04274e-13
-1.04464e-14
-1.38671e-12
1.24145e-12
-2.29494e-12
2.49614e-12
-2.94926e-12
3.6199e-12
-3.32916e-12
4.55309e-12
-3.4133e-12
5.27371e-12
-3.30032e-12
5.92345e-12
-2.91341e-12
6.409e-12
-2.28309e-12
6.6233e-12
-1.64117e-12
6.30791e-12
-8.6471e-13
4.89641e-12
-4.61273e-13
2.78351e-12
-1.94345e-13
1.03329e-12
-1.15831e-12
-2.46098e-14
-1.69073e-13
-2.19689e-13
-8.07871e-13
3.53493e-12
-1.49879e-12
4.99057e-12
-1.98343e-12
5.43168e-12
-2.11961e-12
4.99983e-12
-1.82317e-12
3.99989e-12
-1.17176e-12
2.61408e-12
-5.00145e-14
9.43779e-13
1.56482e-12
-7.14455e-13
3.37537e-12
-1.94173e-12
5.27026e-12
-2.69919e-12
7.53323e-12
-3.64971e-12
9.55508e-12
-4.31683e-12
1.12532e-11
-4.64737e-12
1.25521e-11
-4.62813e-12
1.35202e-11
-4.38146e-12
1.41192e-11
-3.89931e-12
1.43695e-11
-3.1637e-12
1.43476e-11
-2.26121e-12
1.37389e-11
-1.03254e-12
1.2185e-11
6.89173e-13
9.57301e-12
2.15073e-12
5.92776e-12
3.45089e-12
2.03935e-12
2.73009e-12
2.01473e-12
-9.91147e-14
-1.20608e-13
-5.32982e-13
3.96876e-12
-8.51376e-13
5.30893e-12
-8.09333e-13
5.38959e-12
-3.31831e-13
4.52229e-12
7.03153e-13
2.96487e-12
2.53298e-12
7.84208e-13
4.97594e-12
-1.49921e-12
7.7055e-12
-3.44405e-12
1.06609e-11
-4.89721e-12
1.41861e-11
-6.22435e-12
1.75566e-11
-7.02024e-12
2.0564e-11
-7.32427e-12
2.30687e-11
-7.15208e-12
2.48749e-11
-6.43436e-12
2.59688e-11
-5.47544e-12
2.62916e-11
-4.22206e-12
2.58463e-11
-2.7185e-12
2.45165e-11
-9.31372e-13
2.24797e-11
1.00418e-12
1.9633e-11
3.53586e-12
1.58053e-11
5.97847e-12
1.01067e-11
9.14951e-12
3.98889e-12
8.84785e-12
6.00362e-12
-1.11183e-14
-1.0953e-13
-1.56549e-13
4.11414e-12
-3.44224e-14
5.18675e-12
6.13538e-13
4.74159e-12
2.08359e-12
3.0522e-12
4.5819e-12
4.66518e-13
7.70677e-12
-2.3407e-12
1.1406e-11
-5.19843e-12
1.54892e-11
-7.52736e-12
2.03657e-11
-9.7737e-12
2.54481e-11
-1.13068e-11
3.04264e-11
-1.19986e-11
3.51152e-11
-1.20131e-11
3.91231e-11
-1.116e-11
4.19854e-11
-9.2967e-12
4.35979e-11
-7.0879e-12
4.38808e-11
-4.50498e-12
4.28746e-11
-1.71233e-12
4.07613e-11
1.18189e-12
3.73196e-11
4.44586e-12
3.24644e-11
8.39111e-12
2.60185e-11
1.24244e-11
1.74137e-11
1.77543e-11
7.31183e-12
1.89497e-11
1.33154e-11
8.75691e-14
-1.97148e-13
2.63201e-13
3.93845e-12
1.03104e-12
4.41886e-12
2.79097e-12
2.9816e-12
5.52546e-12
3.17666e-13
9.23161e-12
-3.23967e-12
1.3664e-11
-6.7731e-12
1.91619e-11
-1.06964e-11
2.54257e-11
-1.37911e-11
3.19347e-11
-1.62827e-11
3.85382e-11
-1.79103e-11
4.52399e-11
-1.87003e-11
5.17222e-11
-1.84954e-11
5.77461e-11
-1.71839e-11
6.31454e-11
-1.4696e-11
6.67936e-11
-1.07361e-11
6.81061e-11
-5.81746e-12
6.73504e-11
-9.56683e-13
6.49341e-11
3.59828e-12
6.08075e-11
8.57242e-12
5.51649e-11
1.40337e-11
4.70066e-11
2.05826e-11
3.39467e-11
3.08142e-11
1.64586e-11
3.64377e-11
2.97741e-11
3.07742e-13
-5.04954e-13
1.0782e-12
3.16791e-12
2.70162e-12
2.79537e-12
5.42849e-12
2.54661e-13
9.54422e-12
-3.79811e-12
1.467e-11
-8.36553e-12
2.1513e-11
-1.36161e-11
2.91459e-11
-1.83293e-11
3.77842e-11
-2.24295e-11
4.69444e-11
-2.5443e-11
5.6234e-11
-2.72e-11
6.52278e-11
-2.7694e-11
7.36328e-11
-2.69005e-11
8.13489e-11
-2.49e-11
8.82511e-11
-2.15982e-11
9.46108e-11
-1.70958e-11
9.94647e-11
-1.06713e-11
1.0232e-10
-3.81238e-12
1.02195e-10
3.72315e-12
9.90847e-11
1.16832e-11
9.33338e-11
1.97846e-11
8.42492e-11
2.96672e-11
6.90942e-11
4.59693e-11
3.73984e-11
6.81335e-11
6.71725e-11
6.65006e-13
-1.17004e-12
2.02534e-12
1.80749e-12
4.53471e-12
2.85903e-13
8.63199e-12
-3.8427e-12
1.41096e-11
-9.27574e-12
2.18469e-11
-1.61029e-11
3.06769e-11
-2.24462e-11
4.12002e-11
-2.88526e-11
5.25135e-11
-3.37427e-11
6.44484e-11
-3.73778e-11
7.67254e-11
-3.9477e-11
8.89568e-11
-3.99254e-11
1.00694e-10
-3.86379e-11
1.11445e-10
-3.56504e-11
1.20656e-10
-3.08097e-11
1.28602e-10
-2.50416e-11
1.36378e-10
-1.84472e-11
1.4314e-10
-1.05749e-11
1.48942e-10
-2.0783e-12
1.54121e-10
6.504e-12
1.56718e-10
1.71878e-11
1.51674e-10
3.47114e-11
1.38046e-10
5.9597e-11
1.05795e-10
1.00385e-10
1.72967e-10
8.80586e-13
-2.05073e-12
2.93669e-12
-2.48734e-13
6.25463e-12
-3.03214e-12
1.08696e-11
-8.4578e-12
1.71982e-11
-1.56044e-11
2.46024e-11
-2.35072e-11
3.38317e-11
-3.16755e-11
4.40893e-11
-3.91102e-11
5.54737e-11
-4.51271e-11
6.79065e-11
-4.98107e-11
8.12104e-11
-5.27809e-11
9.51882e-11
-5.39032e-11
1.09633e-10
-5.3083e-11
1.24289e-10
-5.03063e-11
1.39389e-10
-4.59093e-11
1.54297e-10
-3.99495e-11
1.68247e-10
-3.23978e-11
1.82301e-10
-2.46287e-11
1.9658e-10
-1.6357e-11
2.09464e-10
-6.38026e-12
2.21957e-10
4.6947e-12
2.31809e-10
2.48597e-11
2.29567e-10
6.18391e-11
2.07997e-10
1.21955e-10
1.76784e-10
2.0418e-10
1.04578e-12
-3.09664e-12
3.54014e-12
-2.74322e-12
7.53349e-12
-7.02562e-12
1.31586e-11
-1.4083e-11
2.04243e-11
-2.28702e-11
2.9406e-11
-3.24888e-11
3.98586e-11
-4.21281e-11
5.16524e-11
-5.0904e-11
6.50094e-11
-5.84841e-11
7.96108e-11
-6.44121e-11
9.5343e-11
-6.8513e-11
1.12068e-10
-7.06282e-11
1.29649e-10
-7.06637e-11
1.47974e-10
-6.86315e-11
1.66517e-10
-6.44525e-11
1.85242e-10
-5.86746e-11
2.04318e-10
-5.14738e-11
2.22969e-10
-4.32796e-11
2.40468e-10
-3.38561e-11
2.57915e-10
-2.38275e-11
2.7202e-10
-9.40976e-12
2.83719e-10
1.31605e-11
2.89385e-10
5.61728e-11
2.84998e-10
1.26342e-10
2.24629e-10
2.37153e-10
1.20335e-12
-4.30012e-12
4.11763e-12
-5.65766e-12
8.77975e-12
-1.16879e-11
1.52845e-11
-2.05879e-11
2.36325e-11
-3.12183e-11
3.37857e-11
-4.26421e-11
4.56104e-11
-5.39529e-11
5.91208e-11
-6.44146e-11
7.41792e-11
-7.35424e-11
9.07311e-11
-8.09641e-11
1.08665e-10
-8.64474e-11
1.27863e-10
-8.98262e-11
1.48193e-10
-9.0993e-11
1.69465e-10
-8.99038e-11
1.91561e-10
-8.65484e-11
2.14121e-10
-8.12351e-11
2.36769e-10
-7.4121e-11
2.58886e-10
-6.5397e-11
2.80033e-10
-5.50033e-11
2.98371e-10
-4.21657e-11
3.13161e-10
-2.41997e-11
3.21068e-10
5.25411e-12
3.2223e-10
5.50109e-11
3.10575e-10
1.37996e-10
2.6433e-10
2.70875e-10
1.34733e-12
-5.64761e-12
4.65431e-12
-8.96481e-12
9.9296e-12
-1.69633e-11
1.72393e-11
-2.78977e-11
2.65627e-11
-4.05419e-11
3.78299e-11
-5.39093e-11
5.09661e-11
-6.70892e-11
6.59155e-11
-7.9364e-11
8.25934e-11
-9.02203e-11
1.00937e-10
-9.93082e-11
1.20865e-10
-1.06375e-10
1.4228e-10
-1.11241e-10
1.65061e-10
-1.13774e-10
1.89053e-10
-1.13895e-10
2.14094e-10
-1.1159e-10
2.39792e-10
-1.06933e-10
2.65651e-10
-9.99796e-11
2.90947e-10
-9.06929e-11
3.1471e-10
-7.8767e-11
3.35253e-10
-6.2708e-11
3.50786e-10
-3.97335e-11
3.59774e-10
-3.73353e-12
3.60771e-10
5.40136e-11
3.53635e-10
1.45133e-10
2.80375e-10
3.37589e-10
1.47551e-12
-7.1233e-12
5.14332e-12
-1.26328e-11
1.09776e-11
-2.27978e-11
1.90178e-11
-3.5938e-11
2.92226e-11
-5.07468e-11
4.1515e-11
-6.62018e-11
5.58197e-11
-8.13939e-11
7.20695e-11
-9.56138e-11
9.02039e-11
-1.08355e-10
1.1016e-10
-1.19264e-10
1.31869e-10
-1.28084e-10
1.55249e-10
-1.34621e-10
1.80198e-10
-1.38722e-10
2.06571e-10
-1.40269e-10
2.34159e-10
-1.39178e-10
2.62611e-10
-1.35384e-10
2.91408e-10
-1.28777e-10
3.19783e-10
-1.19067e-10
3.4669e-10
-1.05674e-10
3.70753e-10
-8.67713e-11
3.90602e-10
-5.95827e-11
4.05034e-10
-1.81647e-11
4.14342e-10
4.47053e-11
4.21233e-10
1.38241e-10
2.70949e-10
4.30659e-10
1.58512e-12
-8.7086e-12
5.57486e-12
-1.66228e-11
1.19084e-11
-2.91315e-11
2.05991e-11
-4.46289e-11
3.15892e-11
-6.1737e-11
4.47945e-11
-7.94072e-11
6.01357e-11
-9.67352e-11
7.75457e-11
-1.13024e-10
9.69663e-11
-1.27775e-10
1.1834e-10
-1.40637e-10
1.41605e-10
-1.5135e-10
1.66693e-10
-1.59709e-10
1.93511e-10
-1.65541e-10
2.21929e-10
-1.68687e-10
2.51745e-10
-1.68994e-10
2.82648e-10
-1.66287e-10
3.14171e-10
-1.60301e-10
3.45676e-10
-1.50572e-10
3.76193e-10
-1.36191e-10
4.04998e-10
-1.15577e-10
4.309e-10
-8.5485e-11
4.54134e-10
-4.13986e-11
4.75912e-10
2.2927e-11
5.00073e-10
1.14081e-10
2.37643e-10
5.33379e-10
1.67482e-12
-1.03836e-11
5.94218e-12
-2.08903e-11
1.27088e-11
-3.58984e-11
2.1964e-11
-5.38843e-11
3.36365e-11
-7.34097e-11
4.76358e-11
-9.34065e-11
6.38788e-11
-1.12978e-10
8.22962e-11
-1.31441e-10
1.02828e-10
-1.48307e-10
1.25417e-10
-1.63227e-10
1.5001e-10
-1.75943e-10
1.76544e-10
-1.86243e-10
2.0494e-10
-1.93936e-10
2.35086e-10
-1.98833e-10
2.66814e-10
-2.00722e-10
2.99868e-10
-1.99341e-10
3.33881e-10
-1.94314e-10
3.68363e-10
-1.85053e-10
4.02745e-10
-1.70574e-10
4.36409e-10
-1.49241e-10
4.69305e-10
-1.18381e-10
5.02045e-10
-7.41389e-11
5.36675e-10
-1.1703e-11
5.772e-10
7.35562e-11
1.84821e-10
6.30022e-10
1.74417e-12
-1.2128e-11
6.24246e-12
-2.53889e-11
1.33731e-11
-4.30292e-11
2.31038e-11
-6.36152e-11
3.53534e-11
-8.56594e-11
5.00253e-11
-1.08079e-10
6.70316e-11
-1.29985e-10
8.6298e-11
-1.50708e-10
1.07761e-10
-1.6977e-10
1.31365e-10
-1.86831e-10
1.57057e-10
-2.01635e-10
1.84783e-10
-2.13969e-10
2.14478e-10
-2.23631e-10
2.46053e-10
-2.30409e-10
2.79381e-10
-2.3405e-10
3.14278e-10
-2.34237e-10
3.50491e-10
-2.30528e-10
3.87717e-10
-2.22279e-10
4.25655e-10
-2.08512e-10
4.64145e-10
-1.8773e-10
5.03497e-10
-1.57733e-10
5.44867e-10
-1.15509e-10
5.9061e-10
-5.74466e-11
6.445e-10
1.96667e-11
1.17478e-10
7.11843e-10
1.79439e-12
-1.39226e-11
6.47698e-12
-3.00717e-11
1.39026e-11
-5.04551e-11
2.40216e-11
-7.37343e-11
3.67446e-11
-9.83825e-11
5.19689e-11
-1.23303e-10
6.96003e-11
-1.47616e-10
8.95584e-11
-1.70666e-10
1.11776e-10
-1.91988e-10
1.36196e-10
-2.11251e-10
1.6277e-10
-2.28208e-10
1.91449e-10
-2.42648e-10
2.22183e-10
-2.54365e-10
2.54909e-10
-2.63135e-10
2.89545e-10
-2.68686e-10
3.25977e-10
-2.7067e-10
3.64071e-10
-2.68622e-10
4.0369e-10
-2.61898e-10
4.44766e-10
-2.49588e-10
4.87442e-10
-2.30407e-10
5.32307e-10
-2.02598e-10
5.8071e-10
-1.63912e-10
6.3506e-10
-1.11796e-10
6.98765e-10
-4.40385e-11
4.01798e-11
7.76063e-10
1.82728e-12
-1.57501e-11
6.65003e-12
-3.48947e-11
1.43054e-11
-5.81107e-11
2.47302e-11
-8.41593e-11
3.78276e-11
-1.1148e-10
5.34881e-11
-1.38964e-10
7.16109e-11
-1.65739e-10
9.21098e-11
-1.91165e-10
1.14914e-10
-2.14792e-10
1.39966e-10
-2.36303e-10
1.67219e-10
-2.55461e-10
1.96632e-10
-2.72061e-10
2.2817e-10
-2.85903e-10
2.61795e-10
-2.96761e-10
2.97468e-10
-3.04358e-10
3.35143e-10
-3.08345e-10
3.74787e-10
-3.08266e-10
4.16402e-10
-3.03513e-10
4.60097e-10
-2.93283e-10
5.06204e-10
-2.76514e-10
5.5546e-10
-2.51854e-10
6.09236e-10
-2.17687e-10
6.69743e-10
-1.72304e-10
7.39989e-10
-1.14284e-10
-4.32989e-11
8.23467e-10
1.84368e-12
-1.7594e-11
6.76765e-12
-3.98189e-11
1.45937e-11
-6.5937e-11
2.52481e-11
-9.48139e-11
3.86271e-11
-1.24859e-10
5.46147e-11
-1.54951e-10
7.31036e-11
-1.84228e-10
9.40031e-11
-2.12064e-10
1.1724e-10
-2.38028e-10
1.42755e-10
-2.61819e-10
1.70506e-10
-2.83211e-10
2.00459e-10
-3.02014e-10
2.32592e-10
-3.18037e-10
2.66893e-10
-3.31061e-10
3.03359e-10
-3.40824e-10
3.42004e-10
-3.46991e-10
3.82875e-10
-3.49137e-10
4.26084e-10
-3.46722e-10
4.71861e-10
-3.39059e-10
5.20649e-10
-3.25302e-10
5.73236e-10
-3.04441e-10
6.30906e-10
-2.75358e-10
6.95569e-10
-2.36967e-10
7.69778e-10
-1.88493e-10
-1.29925e-10
8.56404e-10
1.84764e-12
-1.94419e-11
6.83723e-12
-4.48087e-11
1.4781e-11
-7.3881e-11
2.55961e-11
-1.05629e-10
3.91719e-11
-1.38435e-10
5.53862e-11
-1.71166e-10
7.41267e-11
-2.02968e-10
9.52993e-11
-2.33237e-10
1.18829e-10
-2.61558e-10
1.44658e-10
-2.87648e-10
1.72746e-10
-3.113e-10
2.03068e-10
-3.32336e-10
2.35615e-10
-3.50583e-10
2.70394e-10
-3.6584e-10
3.07436e-10
-3.77865e-10
3.46801e-10
-3.86356e-10
3.88599e-10
-3.90935e-10
4.33016e-10
-3.91138e-10
4.80361e-10
-3.86405e-10
5.31135e-10
-3.76077e-10
5.8612e-10
-3.59425e-10
6.4647e-10
-3.35707e-10
7.1379e-10
-3.04287e-10
7.90127e-10
-2.6483e-10
-2.17577e-10
8.7778e-10
1.83965e-12
-2.12818e-11
6.86548e-12
-4.98348e-11
1.48811e-11
-8.18969e-11
2.57953e-11
-1.16544e-10
3.94914e-11
-1.52131e-10
5.58419e-11
-1.87516e-10
7.47311e-11
-2.21858e-10
9.60627e-11
-2.54569e-10
1.19762e-10
-2.85257e-10
1.45772e-10
-3.13659e-10
1.74057e-10
-3.39584e-10
2.04598e-10
-3.62877e-10
2.37397e-10
-3.83382e-10
2.7248e-10
-4.00924e-10
3.09903e-10
-4.15288e-10
3.49761e-10
-4.26214e-10
3.92206e-10
-4.3338e-10
4.37472e-10
-4.36405e-10
4.85914e-10
-4.34846e-10
5.38049e-10
-4.28213e-10
5.94622e-10
-4.15998e-10
6.56654e-10
-3.9774e-10
7.2548e-10
-3.73113e-10
8.02724e-10
-3.42075e-10
-3.0504e-10
8.90187e-10
1.82365e-12
-2.31057e-11
6.85945e-12
-5.48709e-11
1.49066e-11
-8.99443e-11
2.58655e-11
-1.27503e-10
3.96136e-11
-1.6588e-10
5.60196e-11
-2.03922e-10
7.49657e-11
-2.40804e-10
9.63552e-11
-2.75958e-10
1.20114e-10
-3.09015e-10
1.46187e-10
-3.39732e-10
1.74543e-10
-3.6794e-10
2.0517e-10
-3.93504e-10
2.38078e-10
-4.16291e-10
2.73308e-10
-4.36154e-10
3.10933e-10
-4.52913e-10
3.51073e-10
-4.66353e-10
3.93905e-10
-4.76212e-10
4.39691e-10
-4.82191e-10
4.88799e-10
-4.83954e-10
5.4174e-10
-4.81154e-10
5.99202e-10
-4.7346e-10
6.62078e-10
-4.60616e-10
7.31478e-10
-4.42512e-10
8.08694e-10
-4.19291e-10
-3.91461e-10
8.95116e-10
1.80076e-12
-2.49067e-11
6.82502e-12
-5.98954e-11
1.48688e-11
-9.79883e-11
2.58243e-11
-1.38458e-10
3.95638e-11
-1.79619e-10
5.59536e-11
-2.20312e-10
7.48751e-11
-2.59725e-10
9.62322e-11
-2.97315e-10
1.19952e-10
-3.32735e-10
1.45984e-10
-3.65764e-10
1.74298e-10
-3.96255e-10
2.04889e-10
-4.24095e-10
2.37775e-10
-4.49177e-10
2.73005e-10
-4.71384e-10
3.10665e-10
-4.90573e-10
3.50887e-10
-5.06575e-10
3.93863e-10
-5.19188e-10
4.39861e-10
-5.28189e-10
4.89246e-10
-5.33339e-10
5.425e-10
-5.34408e-10
6.00246e-10
-5.31206e-10
6.63256e-10
-5.23626e-10
7.32451e-10
-5.11707e-10
8.08864e-10
-4.95704e-10
-4.76168e-10
8.93571e-10
1.77238e-12
-2.66793e-11
6.76699e-12
-6.48903e-11
1.47769e-11
-1.05998e-10
2.56866e-11
-1.49368e-10
3.93639e-11
-1.93297e-10
5.56737e-11
-2.36622e-10
7.44978e-11
-2.78549e-10
9.57417e-11
-3.18559e-10
1.19335e-10
-3.56328e-10
1.45229e-10
-3.91658e-10
1.73399e-10
-4.24425e-10
2.03841e-10
-4.54537e-10
2.3658e-10
-4.81916e-10
2.7167e-10
-5.06474e-10
3.09203e-10
-5.28106e-10
3.49317e-10
-5.46688e-10
3.92204e-10
-5.62075e-10
4.38127e-10
-5.74112e-10
4.87431e-10
-5.82644e-10
5.40561e-10
-5.87537e-10
5.98065e-10
-5.8871e-10
6.60605e-10
-5.86166e-10
7.28939e-10
-5.80042e-10
8.03896e-10
-5.70661e-10
-5.58582e-10
8.8631e-10
1.73964e-12
-2.84192e-11
6.68907e-12
-6.984e-11
1.46384e-11
-1.13948e-10
2.54647e-11
-1.60195e-10
3.90321e-11
-2.06864e-10
5.52049e-11
-2.52795e-10
7.38662e-11
-2.97211e-10
9.49237e-11
-3.39617e-10
1.18309e-10
-3.79713e-10
1.43977e-10
-4.17326e-10
1.71905e-10
-4.52352e-10
2.02092e-10
-4.84724e-10
2.34565e-10
-5.14389e-10
2.6938e-10
-5.41289e-10
3.0663e-10
-5.65356e-10
3.46449e-10
-5.86507e-10
3.89024e-10
-6.0465e-10
4.34601e-10
-6.1969e-10
4.83499e-10
-6.31541e-10
5.36111e-10
-6.4015e-10
5.92914e-10
-6.45514e-10
6.54467e-10
-6.47718e-10
7.21389e-10
-6.46964e-10
7.94338e-10
-6.4361e-10
-6.38205e-10
8.73961e-10
1.70338e-12
-3.01229e-11
6.59401e-12
-7.47309e-11
1.44591e-11
-1.21813e-10
2.51684e-11
-1.70904e-10
3.85831e-11
-2.20279e-10
5.45676e-11
-2.6878e-10
7.30069e-11
-3.1565e-10
9.38111e-11
-3.60421e-10
1.16914e-10
-4.02817e-10
1.42274e-10
-4.42686e-10
1.69867e-10
-4.79946e-10
1.99697e-10
-5.14554e-10
2.31788e-10
-5.4648e-10
2.66196e-10
-5.75697e-10
3.03008e-10
-6.02168e-10
3.42353e-10
-6.25852e-10
3.84402e-10
-6.46699e-10
4.2938e-10
-6.64668e-10
4.77569e-10
-6.7973e-10
5.29312e-10
-6.91892e-10
5.85014e-10
-7.01216e-10
6.45135e-10
-7.07839e-10
7.10177e-10
-7.12006e-10
7.80656e-10
-7.14089e-10
-7.14616e-10
8.57067e-10
1.6641e-12
-3.17873e-11
6.48378e-12
-7.95509e-11
1.42433e-11
-1.29573e-10
2.48054e-11
-1.81467e-10
3.80288e-11
-2.33503e-10
5.37787e-11
-2.8453e-10
7.19419e-11
-3.33813e-10
9.24311e-11
-3.8091e-10
1.15183e-10
-4.25568e-10
1.40155e-10
-4.67658e-10
1.67327e-10
-5.07118e-10
1.967e-10
-5.43926e-10
2.28297e-10
-5.78077e-10
2.62169e-10
-6.09568e-10
2.98396e-10
-6.38395e-10
3.37092e-10
-6.64548e-10
3.78413e-10
-6.8802e-10
4.22554e-10
-7.08809e-10
4.69759e-10
-7.26935e-10
5.20319e-10
-7.42452e-10
5.74568e-10
-7.55465e-10
6.32879e-10
-7.66151e-10
6.95647e-10
-7.74774e-10
7.63269e-10
-7.81712e-10
-7.8746e-10
8.36113e-10
1.62222e-12
-3.34098e-11
6.35984e-12
-8.42888e-11
1.39943e-11
-1.37208e-10
2.43818e-11
-1.91854e-10
3.73791e-11
-2.465e-10
5.28519e-11
-3.00003e-10
7.06896e-11
-3.51651e-10
9.08069e-11
-4.01027e-10
1.13142e-10
-4.47903e-10
1.37654e-10
-4.9217e-10
1.64322e-10
-5.33786e-10
1.93143e-10
-5.72748e-10
2.24138e-10
-6.09072e-10
2.5735e-10
-6.4278e-10
2.92848e-10
-6.73893e-10
3.30732e-10
-7.02432e-10
3.71134e-10
-7.28421e-10
4.14219e-10
-7.51895e-10
4.60192e-10
-7.72908e-10
5.0929e-10
-7.9155e-10
5.61782e-10
-8.07957e-10
6.17961e-10
-8.22329e-10
6.78128e-10
-8.34941e-10
7.42575e-10
-8.4616e-10
-8.56449e-10
8.11564e-10
1.57799e-12
-3.4988e-11
6.22338e-12
-8.89345e-11
1.3715e-11
-1.447e-10
2.3903e-11
-2.02043e-10
3.66421e-11
-2.59239e-10
5.17994e-11
-3.1516e-10
6.9266e-11
-3.69118e-10
8.89588e-11
-4.2072e-10
1.10817e-10
-4.69762e-10
1.348e-10
-5.16153e-10
1.60884e-10
-5.5987e-10
1.89065e-10
-6.00928e-10
2.19356e-10
-6.39363e-10
2.5179e-10
-6.75215e-10
2.86426e-10
-7.08529e-10
3.23343e-10
-7.3935e-10
3.62651e-10
-7.67729e-10
4.04484e-10
-7.93727e-10
4.49004e-10
-8.17428e-10
4.96399e-10
-8.38945e-10
5.46876e-10
-8.58435e-10
6.00654e-10
-8.76107e-10
6.57952e-10
-8.92239e-10
7.18973e-10
-9.0718e-10
-9.21359e-10
7.83883e-10
1.53175e-12
-3.65201e-11
6.07544e-12
-9.34785e-11
1.34078e-11
-1.52032e-10
2.33734e-11
-2.12008e-10
3.58254e-11
-2.71691e-10
5.06319e-11
-3.29967e-10
6.7686e-11
-3.86172e-10
8.69059e-11
-4.3994e-10
1.08232e-10
-4.91087e-10
1.31621e-10
-5.39542e-10
1.5705e-10
-5.85298e-10
1.84506e-10
-6.28385e-10
2.13997e-10
-6.68854e-10
2.45546e-10
-7.06764e-10
2.79196e-10
-7.42178e-10
3.15007e-10
-7.75162e-10
3.53065e-10
-8.05786e-10
3.93471e-10
-8.34133e-10
4.36348e-10
-8.60306e-10
4.81836e-10
-8.84433e-10
5.30084e-10
-9.06683e-10
5.81246e-10
-9.27269e-10
6.35466e-10
-9.46459e-10
6.92869e-10
-9.64582e-10
-9.8203e-10
7.53539e-10
1.48361e-12
-3.8004e-11
5.91695e-12
-9.79121e-11
1.30751e-11
-1.59191e-10
2.27974e-11
-2.21731e-10
3.49359e-11
-2.8383e-10
4.93598e-11
-3.4439e-10
6.59637e-11
-4.02776e-10
8.46671e-11
-4.58643e-10
1.0541e-10
-5.1183e-10
1.28148e-10
-5.62281e-10
1.52853e-10
-6.10003e-10
1.7951e-10
-6.55041e-10
2.08115e-10
-6.97459e-10
2.3868e-10
-7.3733e-10
2.71233e-10
-7.74731e-10
3.05816e-10
-8.09745e-10
3.42487e-10
-8.42456e-10
3.81317e-10
-8.72964e-10
4.22392e-10
-9.01381e-10
4.65806e-10
-9.27847e-10
5.11656e-10
-9.52533e-10
5.60037e-10
-9.75649e-10
6.11028e-10
-9.9745e-10
6.64683e-10
-1.01824e-09
-1.03836e-09
7.21018e-10
1.43381e-12
-3.94381e-11
5.74875e-12
-1.02227e-10
1.27189e-11
-1.66161e-10
2.21792e-11
-2.31192e-10
3.39806e-11
-2.95631e-10
4.79933e-11
-3.58403e-10
6.41135e-11
-4.18896e-10
8.22613e-11
-4.76791e-10
1.02376e-10
-5.31944e-10
1.24411e-10
-5.84316e-10
1.48334e-10
-6.33926e-10
1.74122e-10
-6.80829e-10
2.01765e-10
-7.25101e-10
2.31261e-10
-7.66826e-10
2.62623e-10
-8.06093e-10
2.95871e-10
-8.42993e-10
3.31041e-10
-8.77626e-10
3.68173e-10
-9.10096e-10
4.07319e-10
-9.40526e-10
4.4853e-10
-9.69058e-10
4.91857e-10
-9.9586e-10
5.37341e-10
-1.02113e-09
5.85004e-10
-1.04511e-09
6.34842e-10
-1.06808e-09
-1.09033e-09
6.86807e-10
1.38247e-12
-4.08208e-11
5.57175e-12
-1.06417e-10
1.23415e-11
-1.72931e-10
2.1523e-11
-2.40373e-10
3.29664e-11
-3.07075e-10
4.65431e-11
-3.7198e-10
6.21503e-11
-4.34503e-10
7.97083e-11
-4.94349e-10
9.91551e-11
-5.51391e-10
1.20442e-10
-6.05603e-10
1.43532e-10
-6.57015e-10
1.68394e-10
-7.05692e-10
1.95009e-10
-7.51716e-10
2.23364e-10
-7.95181e-10
2.53454e-10
-8.36183e-10
2.85283e-10
-8.74822e-10
3.1886e-10
-9.11203e-10
3.542e-10
-9.45437e-10
3.9132e-10
-9.77647e-10
4.30237e-10
-1.00797e-09
4.70957e-10
-1.03658e-09
5.13476e-10
-1.06365e-09
5.57767e-10
-1.0894e-09
6.03773e-10
-1.11408e-09
-1.13795e-09
6.51395e-10
1.32989e-12
-4.2151e-11
5.38693e-12
-1.10474e-10
1.19454e-11
-1.7949e-10
2.08334e-11
-2.49261e-10
3.19008e-11
-3.18142e-10
4.50201e-11
-3.85099e-10
6.00895e-11
-4.49572e-10
7.70289e-11
-5.11288e-10
9.57751e-11
-5.70137e-10
1.16276e-10
-6.26104e-10
1.38489e-10
-6.79228e-10
1.62378e-10
-7.2958e-10
1.87912e-10
-7.7725e-10
2.15067e-10
-8.22336e-10
2.43823e-10
-8.64939e-10
2.74165e-10
-9.05164e-10
3.06082e-10
-9.43119e-10
3.39562e-10
-9.78917e-10
3.74593e-10
-1.01268e-09
4.11158e-10
-1.04454e-09
4.49228e-10
-1.07465e-09
4.88759e-10
-1.10318e-09
5.29681e-10
-1.13033e-09
5.71894e-10
-1.15629e-09
-1.18131e-09
6.15255e-10
1.27617e-12
-4.34275e-11
5.19537e-12
-1.14394e-10
1.15332e-11
-1.85828e-10
2.01154e-11
-2.57844e-10
3.07918e-11
-3.28819e-10
4.34362e-11
-3.97744e-10
5.79473e-11
-4.64084e-10
7.42449e-11
-5.27586e-10
9.22639e-11
-5.88156e-10
1.11949e-10
-6.45789e-10
1.33252e-10
-7.00531e-10
1.5613e-10
-7.52458e-10
1.80542e-10
-8.01662e-10
2.06453e-10
-8.48247e-10
2.33829e-10
-8.92315e-10
2.62638e-10
-9.33973e-10
2.92849e-10
-9.7333e-10
3.24426e-10
-1.01049e-09
3.57334e-10
-1.04559e-09
3.91524e-10
-1.07873e-09
4.26938e-10
-1.11006e-09
4.63496e-10
-1.13974e-09
5.01096e-10
-1.16793e-09
5.39601e-10
-1.1948e-09
-1.22055e-09
5.78833e-10
1.22164e-12
-4.46494e-11
4.99827e-12
-1.18171e-10
1.11077e-11
-1.91938e-10
1.93741e-11
-2.6611e-10
2.96477e-11
-3.39093e-10
4.18033e-11
-4.09899e-10
5.57406e-11
-4.78021e-10
7.13788e-11
-5.43224e-10
8.86506e-11
-6.05428e-10
1.07497e-10
-6.64636e-10
1.27866e-10
-7.20899e-10
1.49705e-10
-7.74297e-10
1.72967e-10
-8.24925e-10
1.97605e-10
-8.72884e-10
2.23572e-10
-9.18281e-10
2.5082e-10
-9.61221e-10
2.793e-10
-1.00181e-09
3.08958e-10
-1.04015e-09
3.39734e-10
-1.07636e-09
3.71557e-10
-1.11055e-09