/*--------------------------------*- C++ -*----------------------------------*\
  =========                 |
  \\      /  F ield         | OpenFOAM: The Open Source CFD Toolbox
   \\    /   O peration     | Website:  https://openfoam.org
    \\  /    A nd           | Version:  13
     \\/     M anipulation  |
\*---------------------------------------------------------------------------*/
FoamFile
{
    format      ascii;
    class       volVectorField;
    location    "16";
    object      U;
}
// * * * * * * * * * * * * * * * * * * * * * * * * * * * * * * * * * * * * * //

dimensions      [0 1 -1 0 0 0 0];

internalField   nonuniform List<vector> 
6440
(
(0.00854634 -0.00461506 0)
(0.0389941 -0.0167736 0)
(0.0797263 -0.0261534 -8.87924e-16)
(0.127443 -0.0301407 7.16396e-16)
(0.164471 -0.0280733 0)
(0.190147 -0.0238817 -1.16697e-15)
(0.209246 -0.0214657 1.11045e-15)
(0.225352 -0.0220466 0)
(0.242445 -0.0244143 0)
(0.263072 -0.0276774 0)
(0.28876 -0.0319331 1.70855e-15)
(0.319088 -0.0374378 -3.1263e-15)
(0.351991 -0.0427893 1.43726e-15)
(0.385311 -0.0459629 0)
(0.416063 -0.0439365 -2.50499e-15)
(0.440425 -0.0348553 2.40557e-15)
(0.455349 -0.0239757 0)
(0.457557 -0.00964596 0)
(0.443971 0.0082656 0)
(0.411232 0.0304126 0)
(0.357669 0.0468132 -2.75026e-15)
(0.284973 0.0595344 6.40338e-15)
(0.197377 0.06457 -4.03359e-15)
(0.106761 0.0549383 -5.58179e-15)
(0.0327475 0.0413993 7.39034e-15)
(0.0122814 -0.0321191 0)
(0.0564669 -0.0850134 0)
(0.103827 -0.102597 -6.74515e-16)
(0.144407 -0.0974575 5.89168e-16)
(0.176713 -0.0808513 0)
(0.203607 -0.0629142 -1.07224e-15)
(0.226023 -0.0500571 2.06849e-15)
(0.245486 -0.0461608 -9.74811e-16)
(0.266397 -0.0497001 0)
(0.291298 -0.0584257 0)
(0.320626 -0.0689308 0)
(0.353544 -0.0772927 -1.38108e-15)
(0.389469 -0.0803428 1.27392e-15)
(0.427599 -0.0764304 1.18849e-15)
(0.465779 -0.0638447 -1.128e-15)
(0.500623 -0.0415063 0)
(0.527896 -0.00931857 0)
(0.543609 0.0306089 0)
(0.533453 0.0742517 0)
(0.512114 0.11589 0)
(0.466056 0.151045 -2.17781e-15)
(0.40017 0.176993 2.37952e-15)
(0.31556 0.190305 0)
(0.213375 0.182034 -3.5732e-15)
(0.0858556 0.139216 9.86543e-15)
(0.0232991 -0.0908051 0)
(0.0655772 -0.170235 0)
(0.0975613 -0.170953 0)
(0.116433 -0.14308 0)
(0.127608 -0.110154 0)
(0.13842 -0.0838323 0)
(0.1526 -0.0691557 1.26998e-15)
(0.171779 -0.0658534 -1.17623e-15)
(0.195932 -0.0717797 0)
(0.22544 -0.0837697 0)
(0.259256 -0.0976764 0)
(0.29601 -0.109955 0)
(0.335169 -0.117265 0)
(0.377247 -0.116156 1.24352e-15)
(0.421144 -0.102814 -3.53698e-15)
(0.462125 -0.074212 2.31142e-15)
(0.493253 -0.0290376 0)
(0.507574 0.0300803 0)
(0.500701 0.0969102 0)
(0.476398 0.164839 0)
(0.438702 0.226984 0)
(0.390057 0.276808 0)
(0.326853 0.307865 2.48292e-15)
(0.245269 0.308552 -2.96415e-15)
(0.114065 0.264345 3.83248e-15)
(0.0253858 -0.157764 0)
(0.0480781 -0.21653 0)
(0.0536707 -0.197491 -6.65066e-16)
(0.0484729 -0.153593 7.6579e-16)
(0.0423837 -0.115843 0)
(0.0428908 -0.0923749 -1.85206e-15)
(0.0531841 -0.082552 1.74354e-15)
(0.0728175 -0.0832186 0)
(0.0979451 -0.0920655 2.59466e-15)
(0.128627 -0.108584 -2.25577e-15)
(0.163541 -0.130879 1.96693e-15)
(0.200234 -0.15236 -3.45169e-15)
(0.239771 -0.165957 1.5323e-15)
(0.286195 -0.166244 0)
(0.338312 -0.148134 0)
(0.387939 -0.108328 0)
(0.424454 -0.0456218 2.87237e-15)
(0.435437 0.0304663 -1.48028e-19)
(0.417453 0.113059 -2.63471e-15)
(0.383514 0.199184 0)
(0.349804 0.282904 0)
(0.320385 0.353245 2.39088e-15)
(0.284143 0.399582 -2.5041e-15)
(0.232952 0.411587 -2.8469e-15)
(0.112811 0.333272 7.01727e-15)
(0.0121412 -0.192813 0)
(0.00941581 -0.221529 0)
(-0.0103837 -0.175537 -9.41671e-16)
(-0.0352009 -0.128401 1.03881e-15)
(-0.0569351 -0.095111 0)
(-0.0668255 -0.0834424 -1.78554e-15)
(-0.0632752 -0.0899947 1.60928e-15)
(-0.0493318 -0.106481 0)
(-0.0266157 -0.128701 3.03423e-15)
(0.000164281 -0.156094 -3.09885e-15)
(0.0289313 -0.18569 3.18963e-15)
(0.0550476 -0.208826 -5.54057e-15)
(0.0850345 -0.221784 2.17762e-15)
(0.130879 -0.216475 0)
(0.19121 -0.186009 3.44753e-15)
(0.257259 -0.125303 -3.56196e-15)
(0.310514 -0.0447356 4.31135e-15)
(0.333509 0.048447 -3.82609e-20)
(0.316263 0.144967 -3.3896e-15)
(0.270289 0.237974 0)
(0.24111 0.331988 2.85288e-15)
(0.234117 0.416651 3.0957e-19)
(0.226133 0.485659 -2.73031e-15)
(0.205302 0.490579 -2.85736e-15)
(0.0972433 0.359614 3.50534e-15)
(1.04177e-05 -0.177935 0)
(-0.0324746 -0.167925 0)
(-0.0779107 -0.114559 -7.86764e-16)
(-0.12024 -0.0767896 6.71963e-16)
(-0.149258 -0.0644156 0)
(-0.164435 -0.0733513 -1.11907e-15)
(-0.173242 -0.0909608 1.01437e-15)
(-0.180075 -0.111983 0)
(-0.184316 -0.137908 1.74814e-15)
(-0.185897 -0.170602 -1.64744e-15)
(-0.184239 -0.205875 1.56024e-15)
(-0.175443 -0.236906 -3.00095e-15)
(-0.153771 -0.252533 1.48911e-15)
(-0.112151 -0.245611 0)
(-0.0461045 -0.20225 -3.63537e-15)
(0.0539323 -0.103863 4.99659e-15)
(0.198452 0.0420973 1.0738e-14)
(0.215165 0.118741 1.64493e-19)
(0.16361 0.198513 -5.48784e-15)
(0.1263 0.286743 0)
(0.130523 0.380472 -3.19948e-15)
(0.153979 0.463849 5.49767e-15)
(0.170827 0.511229 -2.55371e-15)
(0.16876 0.506126 -2.66553e-15)
(0.0809448 0.344103 3.57414e-15)
(-0.00626455 -0.122525 0)
(-0.0684054 -0.0930346 0)
(-0.132143 -0.0396727 -6.21631e-16)
(-0.183918 -0.0179519 4.82886e-16)
(-0.219208 -0.0262019 0)
(-0.246209 -0.0487577 -8.55135e-16)
(-0.273921 -0.0713239 8.108e-16)
(-0.303759 -0.0937554 0)
(-0.331366 -0.123031 1.31084e-15)
(-0.356241 -0.159897 -1.19532e-15)
(-0.377891 -0.199571 1.09594e-15)
(-0.393454 -0.235856 -2.0361e-15)
(-0.397889 -0.260166 9.65999e-16)
(-0.383568 -0.259176 0)
(-0.342309 -0.225074 0)
(-0.262969 -0.133943 0)
(-0.142772 0.011386 2.98723e-15)
(-0.0408533 0.139353 1.59681e-19)
(-0.021417 0.221017 -3.2467e-15)
(-0.0122211 0.30166 0)
(0.0357984 0.391216 0)
(0.0922886 0.470046 2.44655e-15)
(0.132836 0.509563 -2.45045e-15)
(0.139366 0.491401 -2.68445e-15)
(0.0705237 0.303766 3.88623e-15)
(-0.0190345 -0.0530749 0)
(-0.102572 0.0054995 0)
(-0.175437 0.0506921 -4.42164e-16)
(-0.232463 0.0512193 3.65877e-16)
(-0.277971 0.0264119 0)
(-0.322876 -0.00282087 -6.77786e-16)
(-0.371782 -0.0278381 6.62255e-16)
(-0.421093 -0.0538002 0)
(-0.468265 -0.0865825 1.09577e-15)
(-0.513063 -0.126441 -9.79581e-16)
(-0.555166 -0.170003 8.83008e-16)
(-0.592643 -0.212901 -1.61239e-15)
(-0.621205 -0.249212 7.49045e-16)
(-0.632608 -0.266497 0)
(-0.61463 -0.256185 0)
(-0.551887 -0.199841 0)
(-0.429064 -0.0828636 1.74927e-15)
(-0.261353 0.0784061 1.41127e-19)
(-0.129434 0.213439 -2.95668e-15)
(-0.055098 0.298634 0)
(0.00320573 0.368796 0)
(0.0692266 0.437639 2.66047e-15)
(0.12242 0.478642 -2.65469e-15)
(0.13393 0.459479 -3.00383e-15)
(0.0736157 0.274906 8.51447e-15)
(-0.0334092 0.0311683 0)
(-0.127859 0.115997 0)
(-0.204636 0.144463 0)
(-0.268315 0.127392 0)
(-0.327276 0.0936701 5.7084e-16)
(-0.390849 0.0628016 -5.52675e-16)
(-0.459008 0.0360176 5.28801e-16)
(-0.526423 0.00577328 -5.02638e-16)
(-0.589851 -0.0313348 9.33046e-16)
(-0.650288 -0.0744359 -2.77176e-19)
(-0.709469 -0.121391 -2.8962e-19)
(-0.765634 -0.171026 -6.95968e-16)
(-0.814765 -0.21915 -6.37391e-16)
(-0.849313 -0.258862 1.191e-15)
(-0.857255 -0.280648 -1.71654e-15)
(-0.822786 -0.271756 1.14379e-15)
(-0.726215 -0.217884 0)
(-0.551016 -0.104908 1.44132e-15)
(-0.306218 0.0665887 -1.99404e-15)
(-0.0709566 0.249061 2.89695e-15)
(0.0630945 0.355111 -1.83712e-19)
(0.115092 0.414485 -3.90446e-19)
(0.15053 0.449526 -3.07241e-15)
(0.160465 0.431279 0)
(0.0941047 0.278602 -4.01452e-15)
(-0.044923 0.133702 0)
(-0.141976 0.22774 0)
(-0.2219 0.240076 0)
(-0.293053 0.211509 0)
(-0.364561 0.174718 -4.85556e-16)
(-0.443432 0.145038 4.61591e-16)
(-0.526987 0.117356 -4.33191e-16)
(-0.609368 0.0831029 4.07358e-16)
(-0.687773 0.0409487 0)
(-0.762731 -0.00661993 -7.48284e-16)
(-0.835485 -0.0586483 2.80948e-19)
(-0.905887 -0.115196 6.37245e-16)
(-0.970159 -0.174364 0)
(-1.022 -0.231977 -5.32266e-16)
(-1.05308 -0.282458 1.50071e-15)
(-1.05246 -0.318973 -9.64764e-16)
(-1.00612 -0.331827 9.64231e-16)
(-0.896057 -0.306799 -1.01826e-15)
(-0.701444 -0.22187 0)
(-0.407199 -0.048701 -1.62589e-15)
(-0.0507738 0.212178 5.25287e-15)
(0.17708 0.40414 -7.46522e-15)
(0.215375 0.448275 2.80672e-15)
(0.208116 0.44064 0)
(0.129132 0.326262 -3.42863e-15)
(-0.0507352 0.249641 0)
(-0.146592 0.338265 0)
(-0.230381 0.338318 0)
(-0.308468 0.3029 0)
(-0.389976 0.266488 4.19588e-16)
(-0.48004 0.239294 -3.9378e-16)
(-0.574706 0.211438 3.66292e-16)
(-0.668247 0.17452 -3.4352e-16)
(-0.758689 0.12831 6.53594e-16)
(-0.846961 0.0750336 -2.54652e-19)
(-0.932985 0.0158864 -6.15523e-16)
(-1.0145 -0.048658 0)
(-1.08841 -0.118019 -5.4504e-16)
(-1.15085 -0.190969 9.93969e-16)
(-1.19703 -0.265463 -1.38144e-15)
(-1.22068 -0.338034 8.69538e-16)
(-1.21351 -0.403089 0)
(-1.1637 -0.450344 8.38374e-16)
(-1.05267 -0.460466 -8.77424e-16)
(-0.85078 -0.397658 9.97463e-16)
(-0.516939 -0.202826 -1.21043e-19)
(-0.0410479 0.168324 -2.53733e-15)
(0.240437 0.444053 0)
(0.25739 0.478146 0)
(0.158871 0.396203 0)
(-0.0509471 0.358022 0)
(-0.145956 0.448582 0)
(-0.233321 0.439134 2.07308e-16)
(-0.31714 0.399998 -1.94128e-16)
(-0.406133 0.366073 0)
(-0.503919 0.342034 3.415e-16)
(-0.6061 0.314744 -6.33723e-16)
(-0.707891 0.276491 2.97349e-16)
(-0.808463 0.227361 0)
(-0.908657 0.168727 0)
(-1.00712 0.10151 0)
(-1.09964 0.027195 5.25827e-16)
(-1.18232 -0.0535751 -5.13696e-16)
(-1.25327 -0.14165 -4.74233e-16)
(-1.31053 -0.237643 -4.34247e-16)
(-1.35047 -0.33997 8.08691e-16)
(-1.36741 -0.44445 7.6629e-16)
(-1.3537 -0.543245 -7.42437e-16)
(-1.29647 -0.621388 0)
(-1.17098 -0.649818 0)
(-0.930166 -0.570766 8.87797e-16)
(-0.499652 -0.280748 -1.27173e-15)
(0.122914 0.265874 0)
(0.307988 0.489328 2.7916e-15)
(0.187433 0.458325 -5.17154e-15)
(-0.0489022 0.462092 0)
(-0.143352 0.558225 0)
(-0.233245 0.541631 -1.82452e-16)
(-0.321482 0.501394 1.71958e-16)
(-0.416013 0.471395 3.23615e-16)
(-0.518752 0.450926 -6.00268e-16)
(-0.625749 0.424982 5.57031e-16)
(-0.73422 0.386625 -2.61795e-16)
(-0.844256 0.335807 0)
(-0.955485 0.273016 4.80364e-16)
(-1.06523 0.198705 -4.68683e-16)
(-1.16941 0.113956 -4.63163e-16)
(-1.26373 0.0196067 2.44876e-19)
(-1.3456 -0.0853237 9.14812e-16)
(-1.41361 -0.202016 -1.24115e-15)
(-1.46576 -0.330362 7.60852e-16)
(-1.49745 -0.46651 0)
(-1.50331 -0.603692 0)
(-1.47535 -0.730302 0)
(-1.39646 -0.824535 6.61613e-16)
(-1.22677 -0.84038 -7.01383e-16)
(-0.888629 -0.672804 0)
(-0.27631 -0.147282 0)
(0.369367 0.471319 -3.18076e-15)
(0.236085 0.490739 3.9549e-19)
(-0.0462291 0.562878 0)
(-0.140131 0.666276 0)
(-0.231426 0.644821 1.62192e-16)
(-0.323071 0.605771 -1.53438e-16)
(-0.421523 0.580647 -2.87912e-16)
(-0.526947 0.564136 5.33399e-16)
(-0.637082 0.540367 -4.95637e-16)
(-0.751572 0.503265 2.33271e-16)
(-0.870521 0.45249 0)
(-0.99196 0.387572 -4.27387e-16)
(-1.11272 0.307746 4.16721e-16)
(-1.22963 0.213083 4.11828e-16)
(-1.33882 0.103829 -4.14693e-16)
(-1.43477 -0.0195323 -4.25392e-16)
(-1.5145 -0.157819 -3.95229e-16)
(-1.57631 -0.310635 7.18305e-16)
(-1.61701 -0.474847 6.63685e-16)
(-1.63254 -0.643966 -6.24276e-16)
(-1.61868 -0.808233 0)
(-1.56476 -0.950909 -5.88329e-16)
(-1.44102 -1.0378 1.19675e-15)
(-1.17858 -0.980255 -6.5505e-16)
(-0.657562 -0.555279 0)
(0.233467 0.412259 2.76515e-15)
(0.288235 0.571849 -2.30157e-15)
(-0.0433717 0.661405 9.82559e-17)
(-0.136643 0.772196 7.86242e-17)
(-0.2285 0.747628 -1.45543e-16)
(-0.322511 0.711535 2.7589e-16)
(-0.423084 0.692032 -9.20552e-20)
(-0.529235 0.680173 -2.39584e-16)
(-0.641315 0.65978 2.22904e-16)
(-0.761049 0.625682 2.09651e-16)
(-0.887865 0.577131 -3.99416e-16)
(-1.01863 0.512297 3.83435e-16)
(-1.15045 0.428683 -3.73398e-16)
(-1.281 0.325203 0)
(-1.40623 0.201298 -3.71204e-16)
(-1.51852 0.0579282 7.6502e-16)
(-1.61081 -0.103962 -3.79402e-16)
(-1.68018 -0.282609 6.79618e-16)
(-1.72637 -0.475699 -6.21324e-16)
(-1.74631 -0.676372 0)
(-1.73847 -0.875276 0)
(-1.69764 -1.05841 5.34064e-16)
(-1.60421 -1.20018 4.81243e-19)
(-1.40512 -1.23628 -5.56108e-16)
(-1.00514 -0.958915 0)
(-0.24675 0.00731535 0)
(0.422967 0.790384 -2.34125e-15)
(-0.0404624 0.757751 0)
(-0.132645 0.875522 0)
(-0.224216 0.848643 0)
(-0.319012 0.816625 0)
(-0.419253 0.803441 0)
(-0.524246 0.796685 0)
(-0.637247 0.78149 0)
(-0.761149 0.752373 0)
(-0.894534 0.70868 3.61922e-16)
(-1.03386 0.645847 -3.47158e-16)
(-1.17663 0.560693 0)
(-1.32094 0.449636 0)
(-1.4619 0.312039 0)
(-1.59007 0.147218 0)
(-1.69433 -0.0416234 0)
(-1.77016 -0.251691 0)
(-1.81972 -0.479073 -5.84141e-16)
(-1.84121 -0.715972 1.08038e-15)
(-1.83556 -0.95232 -1.0198e-15)
(-1.80079 -1.17458 4.91159e-16)
(-1.72529 -1.36194 4.84492e-16)
(-1.57135 -1.46774 -4.92387e-16)
(-1.26203 -1.32945 -5.43936e-16)
(-0.648993 -0.442059 8.48779e-16)
(0.554967 1.05533 -2.56175e-15)
(-0.0372041 0.850793 0)
(-0.127309 0.975726 0)
(-0.217262 0.946688 1.20816e-16)
(-0.310191 0.919666 -1.15143e-16)
(-0.407904 0.913028 0)
(-0.509696 0.913559 2.00242e-16)
(-0.622014 0.905566 -3.72916e-16)
(-0.748307 0.884802 1.75325e-16)
(-0.886848 0.847671 3.31171e-16)
(-1.03342 0.789327 -3.17092e-16)
(-1.18615 0.703694 -3.06358e-16)
(-1.34285 0.587169 6.04582e-16)
(-1.49803 0.435285 -3.0465e-16)
(-1.64085 0.246974 -3.15934e-16)
(-1.75678 0.0244901 -3.40354e-16)
(-1.84005 -0.226131 6.17943e-16)
(-1.89208 -0.496554 0)
(-1.91365 -0.776749 5.06861e-16)
(-1.9084 -1.05462 -4.76076e-16)
(-1.87844 -1.31788 0)
(-1.81685 -1.54831 4.4821e-16)
(-1.69982 -1.7085 -9.01447e-16)
(-1.47425 -1.68626 4.7696e-16)
(-1.03889 -1.02367 6.13437e-16)
(0.177484 1.23552 -5.18234e-15)
(-0.0321746 0.938045 6.99611e-17)
(-0.118284 1.07182 5.85246e-17)
(-0.204628 1.04015 -1.12128e-16)
(-0.293893 1.01809 2.13939e-16)
(-0.385511 1.01927 -4.02174e-16)
(-0.481719 1.02785 1.86588e-16)
(-0.591167 1.02864 0)
(-0.718466 1.01673 3.24865e-16)
(-0.860795 0.987428 -3.07065e-16)
(-1.01344 0.935442 -2.91448e-16)
(-1.17394 0.853137 2.82054e-16)
(-1.34092 0.733989 0)
(-1.50861 0.569342 2.79352e-16)
(-1.66426 0.353357 -2.92114e-16)
(-1.79152 0.0888999 6.36626e-16)
(-1.88042 -0.211612 -2.42762e-19)
(-1.93101 -0.532624 -1.0514e-15)
(-1.95333 -0.85886 4.78692e-16)
(-1.94987 -1.17689 -4.48411e-16)
(-1.92746 -1.47687 -5.09798e-19)
(-1.88208 -1.74524 8.38056e-16)
(-1.80098 -1.95184 -4.19135e-16)
(-1.65592 -2.01938 0)
(-1.39841 -1.71874 0)
(-0.817602 -0.0827954 0)
(-0.0245543 1.01412 0)
(-0.103675 1.16059 0)
(-0.184183 1.12621 0)
(-0.26528 1.10928 0)
(-0.348083 1.11959 0)
(-0.436723 1.13881 0)
(-0.541613 1.15248 -1.63475e-16)
(-0.668386 1.15402 1.52744e-16)
(-0.811979 1.1401 2.86038e-16)
(-0.966209 1.10147 -2.71828e-16)
(-1.12994 1.0279 -2.60856e-16)
(-1.30334 0.90551 2.57279e-16)
(-1.48235 0.72052 0)
(-1.65106 0.465138 -2.73425e-16)
(-1.78593 0.147655 3.0445e-16)
(-1.87345 -0.209528 0)
(-1.9204 -0.580932 0)
(-1.94071 -0.947809 4.59612e-16)
(-1.936 -1.2951 -8.55287e-16)
(-1.92426 -1.61456 4.07326e-16)
(-1.90505 -1.90036 3.96191e-16)
(-1.87057 -2.13204 -7.85297e-16)
(-1.79856 -2.24126 4.07003e-16)
(-1.6705 -2.14236 0)
(-1.32678 -1.19859 -9.78092e-16)
(-0.0108839 1.07309 0)
(-0.0814494 1.23931 0)
(-0.152326 1.19988 1.00694e-16)
(-0.223311 1.18857 -9.70195e-17)
(-0.295117 1.20937 0)
(-0.374801 1.24141 1.68494e-16)
(-0.474588 1.2681 -3.11687e-16)
(-0.597527 1.28303 1.44891e-16)
(-0.736975 1.28019 2.7044e-16)
(-0.887554 1.24785 -2.56353e-16)
(-1.05066 1.17231 0)
(-1.23185 1.03901 2.41319e-16)
(-1.4245 0.833628 -2.4587e-16)
(-1.60331 0.545887 -2.61006e-16)
(-1.73831 0.182455 -2.96745e-16)
(-1.80427 -0.224613 5.84825e-16)
(-1.83402 -0.639017 0)
(-1.83354 -1.03525 4.49076e-16)
(-1.82461 -1.39377 -4.16691e-16)
(-1.82983 -1.70909 0)
(-1.85514 -1.98086 0)
(-1.87866 -2.20077 0)
(-1.90028 -2.31238 0)
(-1.92243 -2.25045 4.0845e-16)
(-1.74152 -1.65647 -1.24372e-15)
(0.00360079 1.10691 0)
(-0.0477126 1.29995 0)
(-0.104875 1.26001 0)
(-0.1595 1.25453 0)
(-0.216168 1.28776 0)
(-0.282601 1.33566 0)
(-0.368532 1.37948 0)
(-0.477227 1.41358 0)
(-0.602355 1.43072 0)
(-0.740161 1.41927 0)
(-0.897135 1.36483 0)
(-1.08009 1.24727 0)
(-1.27831 1.03634 0)
(-1.44806 0.707641 0)
(-1.54457 0.272895 0)
(-1.57547 -0.207166 0)
(-1.56825 -0.672822 0)
(-1.55181 -1.09674 0)
(-1.55045 -1.45755 0)
(-1.58115 -1.75603 0)
(-1.64259 -1.99644 0)
(-1.72892 -2.17164 0)
(-1.84848 -2.22035 0)
(-2.01163 -1.94993 0)
(-2.12367 -1.1065 0)
(0.0255798 1.11025 0)
(-0.00283598 1.34613 0)
(-0.0413736 1.30265 0)
(-0.0780508 1.30202 0)
(-0.118312 1.3464 0)
(-0.16812 1.40823 0)
(-0.234979 1.46686 0)
(-0.322211 1.51757 0)
(-0.426631 1.55458 0)
(-0.545097 1.56689 0)
(-0.682179 1.5376 0)
(-0.847315 1.43948 0)
(-1.02276 1.23365 0)
(-1.14999 0.889021 0)
(-1.17903 0.418085 0)
(-1.14948 -0.106176 0)
(-1.12175 -0.610314 0)
(-1.09045 -1.05334 0)
(-1.09097 -1.40884 0)
(-1.14672 -1.68486 0)
(-1.24624 -1.89896 0)
(-1.35614 -2.05612 0)
(-1.45196 -2.13212 0)
(-1.48322 -2.0811 0)
(-1.32391 -1.7542 0)
(0.0511879 1.07804 0)
(0.0546786 1.36935 0)
(0.0383966 1.3263 0)
(0.0197481 1.32689 0)
(-0.00332827 1.38182 0)
(-0.0358878 1.45635 0)
(-0.0792247 1.52774 0)
(-0.138963 1.59263 0)
(-0.215461 1.64777 0)
(-0.303536 1.68142 0)
(-0.405197 1.67305 0)
(-0.526909 1.58815 0)
(-0.654634 1.37909 0)
(-0.725249 1.00464 0)
(-0.678275 0.479986 0)
(-0.608383 -0.084878 0)
(-0.584011 -0.615164 0)
(-0.531222 -1.07693 0)
(-0.514742 -1.41912 0)
(-0.571175 -1.65504 0)
(-0.697873 -1.82307 0)
(-0.839502 -1.95562 0)
(-0.935447 -2.02622 0)
(-0.935557 -1.97474 0)
(-0.786261 -1.77304 0)
(0.0881966 0.998502 0)
(0.12483 1.35829 0)
(0.133968 1.33497 0)
(0.131022 1.33303 0)
(0.124339 1.39482 0)
(0.110479 1.47976 0)
(0.0927941 1.56107 0)
(0.066313 1.6351 0)
(0.0245465 1.70073 0)
(-0.0253047 1.74951 0)
(-0.0741755 1.75654 0)
(-0.129984 1.66681 0)
(-0.195319 1.44065 0)
(-0.226415 1.04193 0)
(-0.143725 0.473045 0)
(-0.0891517 -0.0986121 0)
(-0.0941039 -0.637968 0)
(-0.0352851 -1.11394 0)
(0.00602324 -1.45078 0)
(-0.0101821 -1.64776 0)
(-0.110631 -1.74878 0)
(-0.2588 -1.83194 0)
(-0.373629 -1.92562 0)
(-0.386087 -1.99588 0)
(-0.275616 -1.96661 0)
(0.122429 0.857337 0)
(0.208318 1.32187 0)
(0.242842 1.32677 0)
(0.256143 1.32166 0)
(0.264257 1.38509 0)
(0.266405 1.47858 0)
(0.271611 1.56815 0)
(0.278102 1.64552 0)
(0.275855 1.71272 0)
(0.272649 1.76124 0)
(0.280308 1.75798 0)
(0.295976 1.66303 0)
(0.307047 1.40793 0)
(0.275588 0.991383 0)
(0.34082 0.453693 0)
(0.380589 -0.12315 0)
(0.390631 -0.681439 0)
(0.427302 -1.14937 0)
(0.44941 -1.48237 0)
(0.445199 -1.66733 0)
(0.394986 -1.72937 0)
(0.291726 -1.7514 0)
(0.18247 -1.82519 0)
(0.140804 -1.9534 0)
(0.197989 -2.05382 0)
(0.159744 0.637592 0)
(0.299353 1.25033 0)
(0.364435 1.30116 0)
(0.393788 1.29875 0)
(0.413336 1.35604 0)
(0.427974 1.45187 0)
(0.450757 1.54487 0)
(0.48513 1.622 0)
(0.522465 1.68187 0)
(0.565375 1.71551 0)
(0.622171 1.69612 0)
(0.693934 1.5806 0)
(0.777964 1.30513 0)
(0.787328 0.872168 0)
(0.827338 0.361224 0)
(0.862605 -0.193034 0)
(0.899771 -0.713997 0)
(0.916436 -1.14713 0)
(0.899031 -1.46998 0)
(0.87198 -1.65785 0)
(0.832458 -1.71482 0)
(0.759992 -1.71382 0)
(0.670037 -1.76476 0)
(0.616919 -1.9229 0)
(0.637315 -2.10464 0)
(0.178549 0.336217 0)
(0.385429 1.10774 0)
(0.493409 1.24947 0)
(0.539181 1.26746 0)
(0.56661 1.31931 0)
(0.590475 1.40774 0)
(0.623765 1.49569 0)
(0.676832 1.56708 0)
(0.745387 1.61101 0)
(0.826755 1.61828 0)
(0.922733 1.5741 0)
(1.03347 1.43986 0)
(1.16428 1.16541 0)
(1.24552 0.751174 0)
(1.31031 0.265871 0)
(1.36448 -0.222173 0)
(1.39031 -0.684387 0)
(1.36735 -1.10025 0)
(1.31564 -1.42533 0)
(1.27023 -1.62567 0)
(1.23151 -1.69128 0)
(1.17623 -1.68517 0)
(1.10157 -1.71759 0)
(1.04296 -1.88574 0)
(1.03793 -2.11648 0)
(0.142083 0.0151545 0)
(0.437371 0.871709 0)
(0.611103 1.1627 0)
(0.685324 1.22661 0)
(0.720597 1.27902 0)
(0.750157 1.35575 0)
(0.788086 1.43102 0)
(0.849004 1.48976 0)
(0.934486 1.51677 0)
(1.04004 1.49982 0)
(1.16404 1.42687 0)
(1.30194 1.27467 0)
(1.45491 1.01375 0)
(1.58541 0.64176 0)
(1.68726 0.206708 0)
(1.74734 -0.238366 0)
(1.75159 -0.670059 0)
(1.70615 -1.06426 0)
(1.64358 -1.38055 0)
(1.59498 -1.58842 0)
(1.56303 -1.66574 0)
(1.52553 -1.66838 0)
(1.46784 -1.67901 0)
(1.41238 -1.84492 0)
(1.39605 -2.11002 0)
(0.0212116 -0.168677 0)
(0.411068 0.545301 0)
(0.682523 1.00713 0)
(0.815263 1.16456 0)
(0.870331 1.2362 0)
(0.905136 1.3048 0)
(0.943253 1.36379 0)
(1.00264 1.40299 0)
(1.09081 1.4113 0)
(1.20603 1.37399 0)
(1.3442 1.27787 0)
(1.49674 1.10986 0)
(1.65648 0.857553 0)
(1.8004 0.520258 0)
(1.90902 0.126529 0)
(1.9646 -0.290049 0)
(1.96738 -0.69274 0)
(1.93248 -1.04982 0)
(1.88452 -1.34014 0)
(1.84724 -1.5466 0)
(1.82801 -1.64209 0)
(1.80778 -1.65713 0)
(1.7674 -1.65347 0)
(1.72262 -1.81296 0)
(1.70736 -2.10174 0)
(-0.0349514 -0.199108 0)
(0.282345 0.186832 0)
(0.66765 0.743258 0)
(0.898049 1.046 0)
(1.00112 1.18121 0)
(1.05004 1.25835 0)
(1.08873 1.30406 0)
(1.14118 1.3196 0)
(1.22113 1.3029 0)
(1.33137 1.24429 0)
(1.46788 1.1301 0)
(1.62049 0.949863 0)
(1.77511 0.698973 0)
(1.91286 0.382101 0)
(2.01415 0.0188854 0)
(2.0713 -0.357918 0)
(2.09024 -0.712217 0)
(2.08275 -1.02627 0)
(2.06176 -1.29627 0)
(2.04492 -1.50688 0)
(2.04167 -1.62767 0)
(2.03512 -1.65317 0)
(2.0079 -1.64182 0)
(1.97739 -1.79419 0)
(1.97106 -2.0952 0)
(-0.0289077 -0.21738 0)
(0.060645 -0.223819 0)
(0.517008 0.340504 0)
(0.886723 0.821256 0)
(1.08169 1.08087 0)
(1.17024 1.20422 0)
(1.21905 1.25276 0)
(1.26588 1.2494 0)
(1.33186 1.20413 0)
(1.4259 1.11804 0)
(1.54693 0.983722 0)
(1.68533 0.792557 0)
(1.82583 0.542922 0)
(1.95202 0.243278 0)
(2.05034 -0.0873373 0)
(2.11955 -0.419954 0)
(2.16577 -0.730306 0)
(2.19226 -1.01498 0)
(2.20243 -1.27598 0)
(2.20956 -1.4938 0)
(2.22029 -1.6281 0)
(2.21827 -1.6571 0)
(2.19627 -1.64113 0)
(2.1803 -1.78886 0)
(2.18796 -2.09661 0)
(0.0200561 -0.240912 0)
(0.0848472 -0.364271 0)
(0.264779 -0.155465 0)
(0.732346 0.441183 0)
(1.06759 0.885693 0)
(1.23644 1.11282 0)
(1.31797 1.19731 0)
(1.3704 1.19243 0)
(1.426 1.12567 0)
(1.50115 1.01099 0)
(1.59988 0.851929 0)
(1.71683 0.64729 0)
(1.84002 0.398217 0)
(1.95621 0.114893 0)
(2.05908 -0.186833 0)
(2.14886 -0.487537 0)
(2.22638 -0.774121 0)
(2.28412 -1.04557 0)
(2.32244 -1.29969 0)
(2.34914 -1.51259 0)
(2.3642 -1.64061 0)
(2.35305 -1.66194 0)
(2.32952 -1.64357 0)
(2.33197 -1.79828 0)
(2.36002 -2.10977 0)
(0.0533432 -0.316885 0)
(0.16782 -0.431162 0)
(0.240056 -0.35021 0)
(0.468637 -0.0481758 0)
(0.914851 0.550025 0)
(1.20769 0.942256 0)
(1.35631 1.11211 0)
(1.43515 1.13508 0)
(1.4937 1.06426 0)
(1.55811 0.929611 0)
(1.63964 0.747465 0)
(1.73823 0.525653 0)
(1.84715 0.271326 0)
(1.95852 -0.00575826 0)
(2.07217 -0.294799 0)
(2.18346 -0.582627 0)
(2.28293 -0.858098 0)
(2.35728 -1.11766 0)
(2.41023 -1.35561 0)
(2.44161 -1.54685 0)
(2.44507 -1.64721 0)
(2.4214 -1.65322 0)
(2.40271 -1.64266 0)
(2.43552 -1.83335 0)
(2.48862 -2.14216 0)
(0.0683737 -0.474502 0)
(0.207909 -0.561025 0)
(0.316665 -0.423172 0)
(0.368347 -0.301569 0)
(0.650536 0.129926 0)
(1.04674 0.662806 0)
(1.29471 0.965497 0)
(1.42674 1.05398 0)
(1.50698 1.00218 0)
(1.57565 0.861572 0)
(1.65162 0.662465 0)
(1.74174 0.423451 0)
(1.84423 0.157228 0)
(1.95734 -0.127055 0)
(2.07961 -0.418669 0)
(2.20086 -0.702749 0)
(2.30194 -0.965591 0)
(2.37838 -1.20513 0)
(2.43277 -1.41548 0)
(2.45935 -1.57297 0)
(2.45174 -1.62954 0)
(2.41628 -1.63631 0)
(2.42539 -1.65938 0)
(2.50257 -1.8968 0)
(2.57755 -2.19076 0)
(0.0708237 -0.656489 0)
(0.210942 -0.696801 0)
(0.325501 -0.499982 0)
(0.397035 -0.291858 0)
(0.44231 -0.144712 0)
(0.764292 0.316279 0)
(1.09699 0.7374 0)
(1.30363 0.924561 0)
(1.42497 0.917472 0)
(1.51219 0.785995 0)
(1.59521 0.578826 0)
(1.68622 0.325105 0)
(1.78535 0.0428837 0)
(1.90019 -0.256414 0)
(2.01973 -0.553931 0)
(2.13168 -0.830248 0)
(2.21975 -1.07512 0)
(2.30573 -1.28869 0)
(2.36296 -1.46185 0)
(2.38113 -1.5724 0)
(2.36041 -1.60315 0)
(2.35376 -1.61823 0)
(2.42661 -1.72695 0)
(2.5496 -1.99512 0)
(2.62593 -2.24776 0)
(0.0475041 -0.819328 0)
(0.169382 -0.795304 0)
(0.23465 -0.56377 0)
(0.32601 -0.28755 0)
(0.328713 -0.124903 0)
(0.45413 0.0714736 0)
(0.765981 0.468653 0)
(1.03085 0.739118 0)
(1.20341 0.793895 0)
(1.32222 0.687397 0)
(1.42062 0.48215 0)
(1.51409 0.219994 0)
(1.60807 -0.0792442 0)
(1.70766 -0.391154 0)
(1.80858 -0.686843 0)
(1.90698 -0.950692 0)
(2.00265 -1.17746 0)
(2.09388 -1.3643 0)
(2.16626 -1.49817 0)
(2.19995 -1.56821 0)
(2.22419 -1.60159 0)
(2.30177 -1.67206 0)
(2.45286 -1.86651 0)
(2.58611 -2.10928 0)
(2.6416 -2.29768 0)
(-0.00859635 -0.929363 0)
(0.0610987 -0.83828 0)
(0.0443196 -0.572284 0)
(0.0605704 -0.298167 0)
(0.0542111 -0.0804308 0)
(0.0912787 0.00613428 0)
(0.325706 0.258638 0)
(0.596598 0.530123 0)
(0.806902 0.62944 0)
(0.960059 0.55542 0)
(1.07942 0.365625 0)
(1.17159 0.105758 0)
(1.23275 -0.200925 0)
(1.30798 -0.520002 0)
(1.43367 -0.82212 0)
(1.59128 -1.0838 0)
(1.75196 -1.29496 0)
(1.89393 -1.45261 0)
(2.00007 -1.55404 0)
(2.08045 -1.61538 0)
(2.18016 -1.68765 0)
(2.333 -1.82947 0)
(2.49146 -2.02167 0)
(2.59661 -2.19737 0)
(2.61536 -2.32082 0)
(-0.0926318 -0.958938 0)
(-0.119549 -0.8024 0)
(-0.218353 -0.519472 0)
(-0.300033 -0.266983 0)
(-0.415452 -0.0901628 0)
(-0.476468 -0.00226696 0)
(-0.232509 0.146818 0)
(0.000178144 0.353491 0)
(0.217686 0.444541 0)
(0.401883 0.388539 0)
(0.555511 0.223177 0)
(0.604459 -0.00844372 0)
(0.661604 -0.331234 0)
(0.884188 -0.705901 0)
(1.16844 -1.03564 0)
(1.43313 -1.28377 0)
(1.65215 -1.45974 0)
(1.82033 -1.57926 0)
(1.95079 -1.6606 0)
(2.07609 -1.73826 0)
(2.21953 -1.84882 0)
(2.3663 -1.99003 0)
(2.4703 -2.12786 0)
(2.51555 -2.23923 0)
(2.5288 -2.3254 0)
(-0.19823 -0.875445 0)
(-0.358411 -0.664386 0)
(-0.520574 -0.422277 0)
(-0.649099 -0.209265 0)
(-0.762442 -0.0612028 0)
(-0.824009 0.0439126 0)
(-0.789341 0.14111 0)
(-0.657594 0.23651 0)
(-0.478988 0.278226 0)
(-0.302705 0.240818 0)
(-0.160812 0.124412 0)
(-0.0020289 -0.0918519 0)
(0.447208 -0.602893 0)
(0.859773 -1.02966 0)
(1.19466 -1.32601 0)
(1.45564 -1.51837 0)
(1.65663 -1.6433 0)
(1.81451 -1.72967 0)
(1.95266 -1.80413 0)
(2.08764 -1.88948 0)
(2.21398 -1.98906 0)
(2.3087 -2.08827 0)
(2.36618 -2.17746 0)
(2.39943 -2.26007 0)
(2.42542 -2.34015 0)
(-0.298481 -0.557976 0)
(-0.600786 -0.450877 0)
(-0.841324 -0.270762 0)
(-1.03256 -0.113704 0)
(-1.1863 0.000715738 0)
(-1.2807 0.0843095 0)
(-1.28557 0.155353 0)
(-1.21877 0.19328 0)
(-0.991373 0.182139 0)
(-0.674557 0.117784 0)
(-0.294584 -0.0587567 0)
(0.185787 -0.456216 0)
(0.619148 -0.964342 0)
(0.966921 -1.35241 0)
(1.24362 -1.59331 0)
(1.46315 -1.73308 0)
(1.63885 -1.81831 0)
(1.7857 -1.88151 0)
(1.91523 -1.94236 0)
(2.02867 -2.00763 0)
(2.1187 -2.07509 0)
(2.18557 -2.14391 0)
(2.23899 -2.21773 0)
(2.28808 -2.29783 0)
(2.33599 -2.38012 0)
(-0.350855 -0.224394 0)
(-0.750408 -0.150766 0)
(-1.03848 -0.0398274 0)
(-1.23487 0.0315894 0)
(-1.34527 0.0580171 0)
(-1.35306 0.0565139 0)
(-1.3002 0.0529465 0)
(-1.01839 0.0240456 0)
(-0.727299 -0.0387827 0)
(-0.371664 -0.154531 0)
(-0.0272422 -0.340836 0)
(0.380155 -0.806845 0)
(0.740214 -1.30152 0)
(1.03369 -1.64249 0)
(1.26935 -1.82877 0)
(1.45713 -1.92109 0)
(1.60841 -1.97121 0)
(1.73374 -2.00874 0)
(1.8393 -2.0467 0)
(1.928 -2.08984 0)
(2.00449 -2.14162 0)
(2.07489 -2.20459 0)
(2.1424 -2.27785 0)
(2.20613 -2.35664 0)
(2.26395 -2.43503 0)
(-0.280567 0.128196 0)
(-0.643634 0.175529 0)
(-0.902812 0.191766 0)
(-1.02663 0.133461 0)
(-1.01174 -0.00595118 0)
(-0.875412 -0.190322 0)
(-0.679836 -0.364372 0)
(-0.468411 -0.481516 0)
(-0.241723 -0.53356 0)
(-0.028796 -0.521598 0)
(0.243827 -0.675491 0)
(0.576312 -1.13089 0)
(0.879894 -1.59007 0)
(1.12563 -1.87887 0)
(1.31641 -2.01434 0)
(1.46411 -2.06667 0)
(1.58168 -2.08805 0)
(1.67967 -2.10523 0)
(1.76601 -2.12972 0)
(1.84692 -2.16648 0)
(1.92578 -2.21687 0)
(2.00221 -2.27881 0)
(2.07358 -2.34795 0)
(2.13758 -2.41966 0)
(2.19425 -2.49077 0)
(-0.207729 0.446413 0)
(-0.475375 0.496693 0)
(-0.65254 0.424869 0)
(-0.676854 0.21621 0)
(-0.56874 -0.0941235 0)
(-0.458277 -0.366468 0)
(-0.33233 -0.591731 0)
(-0.140466 -0.780117 0)
(0.0580976 -0.855623 0)
(0.237989 -0.81646 0)
(0.482123 -0.979468 0)
(0.77072 -1.40931 0)
(1.02733 -1.82516 0)
(1.22169 -2.06309 0)
(1.36292 -2.15464 0)
(1.46972 -2.17639 0)
(1.55768 -2.17948 0)
(1.63751 -2.18764 0)
(1.71548 -2.20929 0)
(1.79345 -2.24557 0)
(1.86978 -2.2941 0)
(1.94168 -2.35116 0)
(2.00727 -2.41327 0)
(2.06661 -2.47806 0)
(2.12106 -2.54417 0)
(-0.128719 0.763359 0)
(-0.285627 0.749478 0)
(-0.384167 0.600046 0)
(-0.347419 0.282451 0)
(-0.282506 -0.0906804 0)
(-0.261494 -0.378305 0)
(-0.160607 -0.670828 0)
(0.0292417 -0.946997 0)
(0.230046 -1.07481 0)
(0.430174 -1.09545 0)
(0.672777 -1.27042 0)
(0.938837 -1.66697 0)
(1.15561 -2.02506 0)
(1.30058 -2.20527 0)
(1.39672 -2.25695 0)
(1.47034 -2.25798 0)
(1.53737 -2.25336 0)
(1.60504 -2.26039 0)
(1.67486 -2.2826 0)
(1.74517 -2.31805 0)
(1.81347 -2.3634 0)
(1.87799 -2.41569 0)
(1.93826 -2.47291 0)
(1.99463 -2.5337 0)
(2.0479 -2.59706 0)
(-0.0495463 0.911585 0)
(-0.099885 0.892319 0)
(-0.143921 0.688336 0)
(-0.091091 0.273442 0)
(-0.0781997 -0.187548 0)
(-0.0445966 -0.459284 0)
(0.0333965 -0.794409 0)
(0.192918 -1.10989 0)
(0.379962 -1.28115 0)
(0.580456 -1.35161 0)
(0.824453 -1.54454 0)
(1.07513 -1.90213 0)
(1.25348 -2.18527 0)
(1.35319 -2.30339 0)
(1.41283 -2.32349 0)
(1.46216 -2.3152 0)
(1.51391 -2.31158 0)
(1.57094 -2.32221 0)
(1.63187 -2.3468 0)
(1.69416 -2.38229 0)
(1.75563 -2.4258 0)
(1.81497 -2.47538 0)
(1.87158 -2.52972 0)
(1.92549 -2.58785 0)
(1.97699 -2.64896 0)
(0.024671 0.879311 0)
(0.0627359 0.911674 0)
(0.0640578 0.710683 0)
(0.11954 0.290249 0)
(0.146187 -0.1437 0)
(0.183801 -0.509132 0)
(0.22887 -0.884143 0)
(0.354468 -1.24764 0)
(0.515572 -1.46641 0)
(0.708606 -1.59016 0)
(0.952374 -1.80137 0)
(1.17904 -2.10746 0)
(1.3128 -2.30314 0)
(1.37279 -2.36373 0)
(1.40678 -2.36434 0)
(1.441 -2.35668 0)
(1.48316 -2.35975 0)
(1.53296 -2.37653 0)
(1.58758 -2.40457 0)
(1.64415 -2.44094 0)
(1.70051 -2.48359 0)
(1.75539 -2.53133 0)
(1.80824 -2.58341 0)
(1.85884 -2.63922 0)
(1.90733 -2.69832 0)
(0.0817862 0.749725 0)
(0.189189 0.843207 0)
(0.243712 0.66334 0)
(0.301633 0.293439 0)
(0.341862 -0.110619 0)
(0.358515 -0.510598 0)
(0.371434 -0.936174 0)
(0.4744 -1.36879 0)
(0.628344 -1.64776 0)
(0.826683 -1.82204 0)
(1.06188 -2.03599 0)
(1.24527 -2.27141 0)
(1.3295 -2.37827 0)
(1.35998 -2.39672 0)
(1.38078 -2.39121 0)
(1.40908 -2.39092 0)
(1.44758 -2.40308 0)