/*--------------------------------*- C++ -*----------------------------------*\
  =========                 |
  \\      /  F ield         | OpenFOAM: The Open Source CFD Toolbox
   \\    /   O peration     | Website:  https://openfoam.org
    \\  /    A nd           | Version:  13
     \\/     M anipulation  |
\*---------------------------------------------------------------------------*/
FoamFile
{
    format      ascii;
    class       volScalarField;
    location    "14";
    object      p;
}
// * * * * * * * * * * * * * * * * * * * * * * * * * * * * * * * * * * * * * //

dimensions      [0 2 -2 0 0 0 0];

internalField   nonuniform List<scalar> 
6440
(
-0.000337359
-0.000337597
-0.000338136
-0.000338949
-0.000340006
-0.000341235
-0.000342534
-0.000343807
-0.000344944
-0.000345835
-0.000346371
-0.000346458
-0.000346019
-0.000345011
-0.000343427
-0.00034129
-0.000338671
-0.000335652
-0.000332334
-0.000328836
-0.000325251
-0.000321638
-0.000318152
-0.00031485
-0.000312082
-0.000335893
-0.000336145
-0.000336699
-0.000337543
-0.000338648
-0.000339955
-0.000341383
-0.00034284
-0.000344227
-0.000345434
-0.000346348
-0.000346856
-0.000346858
-0.000346269
-0.000345033
-0.000343126
-0.000340534
-0.000337231
-0.000333299
-0.000328842
-0.000323964
-0.000318784
-0.000313509
-0.000308386
-0.000303864
-0.000333527
-0.000333854
-0.00033451
-0.000335499
-0.000336795
-0.00033834
-0.000340079
-0.000341906
-0.000343717
-0.000345394
-0.000346812
-0.000347836
-0.000348336
-0.000348193
-0.000347296
-0.000345555
-0.000342895
-0.000339234
-0.000334635
-0.000329218
-0.000323105
-0.000316439
-0.000309516
-0.000302832
-0.000297091
-0.000330293
-0.000330715
-0.000331517
-0.000332713
-0.000334274
-0.000336139
-0.000338247
-0.00034051
-0.000342799
-0.000344988
-0.000346936
-0.000348491
-0.000349496
-0.000349795
-0.000349234
-0.000347678
-0.00034501
-0.000341109
-0.000335985
-0.000329784
-0.000322627
-0.000314698
-0.000306361
-0.000298298
-0.000291467
-0.000326081
-0.000326602
-0.000327564
-0.000328988
-0.00033084
-0.000333054
-0.000335554
-0.000338268
-0.000341058
-0.00034378
-0.000346283
-0.000348397
-0.000349944
-0.000350741
-0.000350597
-0.000349337
-0.000346814
-0.000342883
-0.000337442
-0.000330676
-0.000322684
-0.000313676
-0.000304073
-0.000294675
-0.000286733
-0.000320814
-0.000321433
-0.00032256
-0.000324219
-0.000326372
-0.000328947
-0.000331859
-0.00033501
-0.000338328
-0.000341603
-0.000344684
-0.000347395
-0.00034954
-0.000350914
-0.000351301
-0.000350487
-0.000348286
-0.000344534
-0.000339039
-0.000331901
-0.000323248
-0.000313283
-0.000302468
-0.000291774
-0.000282722
-0.000314459
-0.000315176
-0.000316467
-0.000318367
-0.000320828
-0.000323774
-0.000327114
-0.000330743
-0.000334566
-0.000338398
-0.000342076
-0.000345417
-0.000348214
-0.000350245
-0.000351275
-0.000351057
-0.000349356
-0.00034597
-0.000340681
-0.000333359
-0.000324222
-0.000313415
-0.000301433
-0.000289451
-0.00027927
-0.000307013
-0.000307823
-0.000309278
-0.000311417
-0.000314188
-0.000317508
-0.000321279
-0.000325383
-0.000329691
-0.000334128
-0.000338431
-0.000342428
-0.000345917
-0.00034867
-0.000350436
-0.000350945
-0.000349913
-0.000347083
-0.000342208
-0.000334961
-0.000325509
-0.000313971
-0.000300859
-0.000287582
-0.000276219
-0.000298494
-0.00029939
-0.000301002
-0.000303374
-0.000306451
-0.000310143
-0.000314349
-0.000318946
-0.000323797
-0.000328811
-0.000333739
-0.000338404
-0.000342607
-0.000346121
-0.000348691
-0.000350028
-0.000349814
-0.000347719
-0.000343434
-0.000336597
-0.00032701
-0.000314871
-0.000300695
-0.000286069
-0.000273437
-0.000288939
-0.00028991
-0.000291665
-0.000294254
-0.000297619
-0.000301671
-0.000306305
-0.000311394
-0.000316797
-0.000322376
-0.000327959
-0.000333308
-0.000338238
-0.000342534
-0.000345947
-0.000348183
-0.000348901
-0.000347713
-0.000344227
-0.000338028
-0.000328553
-0.000316017
-0.000300843
-0.000284778
-0.000270862
-0.000278408
-0.000279438
-0.000281312
-0.000284086
-0.000287705
-0.000292082
-0.000297116
-0.000302681
-0.000308632
-0.000314815
-0.000321042
-0.000327082
-0.000332749
-0.000337838
-0.000342112
-0.000345288
-0.000347018
-0.000346881
-0.00034439
-0.000339029
-0.000330115
-0.000317427
-0.000301382
-0.00028389
-0.000268638
-0.000266982
-0.000268048
-0.000270006
-0.000272918
-0.000276734
-0.000281376
-0.000286752
-0.000292741
-0.000299206
-0.000305985
-0.000312855
-0.000319601
-0.000326029
-0.000331932
-0.000337088
-0.00034123
-0.000344026
-0.000345048
-0.000343749
-0.000339499
-0.000331544
-0.000319053
-0.000302388
-0.000283569
-0.000266851
-0.000254768
-0.000255843
-0.000257838
-0.000260822
-0.000264753
-0.000269568
-0.000275186
-0.000281504
-0.000288399
-0.00029572
-0.000303205
-0.000310664
-0.000317886
-0.000324652
-0.000330735
-0.000335883
-0.000339791
-0.000342055
-0.000342121
-0.000339264
-0.000332576
-0.000320742
-0.000303897
-0.000283876
-0.000265629
-0.000241898
-0.000242951
-0.000244927
-0.000247903
-0.000251844
-0.000256705
-0.000262422
-0.000268915
-0.000276087
-0.00028382
-0.000291826
-0.000299961
-0.000307998
-0.000315694
-0.000322794
-0.000329036
-0.000334134
-0.000337729
-0.000339306
-0.000338093
-0.000333019
-0.000322585
-0.000305952
-0.00028499
-0.000265124
-0.000228533
-0.00022953
-0.000231426
-0.000234299
-0.000238127
-0.000242877
-0.000248507
-0.000254962
-0.000262173
-0.000270062
-0.000278402
-0.000287082
-0.000295882
-0.000304543
-0.000312772
-0.000320258
-0.000326709
-0.000331808
-0.000335093
-0.000335812
-0.000332822
-0.000324372
-0.000308718
-0.000287284
-0.000265784
-0.000214856
-0.000215763
-0.000217516
-0.000220188
-0.000223767
-0.000228231
-0.000233556
-0.000239709
-0.000246643
-0.000254285
-0.000262664
-0.000271593
-0.000280929
-0.000290425
-0.000299794
-0.00030866
-0.000316774
-0.000323766
-0.000329126
-0.000332125
-0.000331757
-0.000326006
-0.000312412
-0.000291278
-0.000268409
-0.000201068
-0.000201858
-0.000203407
-0.000205782
-0.000208974
-0.00021297
-0.000217756
-0.000223321
-0.00022964
-0.000236687
-0.000244517
-0.000253143
-0.000262515
-0.000272345
-0.000282536
-0.000292817
-0.000302832
-0.000312155
-0.000320231
-0.00032635
-0.000329404
-0.000327366
-0.000317432
-0.00029833
-0.000274889
-0.000187388
-0.000188035
-0.000189331
-0.000191325
-0.000194007
-0.000197364
-0.000201385
-0.000206088
-0.00021145
-0.000217417
-0.000224144
-0.000231766
-0.000240317
-0.000249795
-0.000260176
-0.000271252
-0.000282717
-0.000294415
-0.000305736
-0.000315998
-0.00032405
-0.000327848
-0.000324328
-0.000310996
-0.00028958
-0.000174096
-0.000174575
-0.000175567
-0.000177105
-0.000179179
-0.000181761
-0.000184814
-0.000188388
-0.000192472
-0.000197029
-0.000202293
-0.000208396
-0.000215433
-0.000223503
-0.000232735
-0.00024322
-0.000255018
-0.00026822
-0.000282135
-0.000296907
-0.000311547
-0.000324439
-0.000332412
-0.000332204
-0.000321244
-0.000161377
-0.000161686
-0.000162382
-0.000163448
-0.000164847
-0.000166588
-0.000168668
-0.000171098
-0.000173848
-0.000176972
-0.000180692
-0.000185085
-0.000190263
-0.000196381
-0.00020364
-0.000212272
-0.000222584
-0.000234862
-0.000249447
-0.00026687
-0.000286696
-0.000310233
-0.000336753
-0.000364302
-0.000391053
-0.000149361
-0.000149552
-0.000150006
-0.000150747
-0.00015175
-0.000153006
-0.000154505
-0.000156247
-0.000158228
-0.000160627
-0.000163477
-0.000166866
-0.000170917
-0.00017579
-0.000181702
-0.000188946
-0.000197784
-0.000208626
-0.000221987
-0.000238898
-0.000260459
-0.000288522
-0.000327506
-0.000390695
-0.000522039
-0.000137604
-0.000137757
-0.000138146
-0.000138803
-0.000139717
-0.000140878
-0.00014228
-0.000143928
-0.000145926
-0.000148273
-0.000151036
-0.000154311
-0.000158215
-0.0001629
-0.00016855
-0.000175395
-0.000183879
-0.000194474
-0.000207804
-0.000224755
-0.000246781
-0.000276407
-0.000318538
-0.000382252
-0.000481075
-0.000126117
-0.000126255
-0.000126617
-0.000127242
-0.000128126
-0.000129264
-0.000130659
-0.000132326
-0.000134308
-0.000136642
-0.000139389
-0.000142636
-0.000146497
-0.000151119
-0.000156691
-0.000163457
-0.000171762
-0.000182024
-0.000194904
-0.000211182
-0.000232073
-0.000259451
-0.000296023
-0.000344783
-0.00040523
-0.000114909
-0.000115036
-0.000115376
-0.000115972
-0.000116824
-0.000117928
-0.00011929
-0.000120922
-0.000122852
-0.00012512
-0.000127781
-0.000130914
-0.000134623
-0.000139043
-0.000144345
-0.000150749
-0.000158537
-0.000168067
-0.000179813
-0.000194362
-0.000212488
-0.000235143
-0.000263164
-0.000296369
-0.000331208
-0.000103991
-0.000104105
-0.000104418
-0.000104975
-0.000105777
-0.000106821
-0.000108109
-0.000109653
-0.000111472
-0.0001136
-0.000116084
-0.000118992
-0.000122411
-0.000126457
-0.00013127
-0.000137026
-0.000143938
-0.000152262
-0.000162297
-0.000174371
-0.000188792
-0.000205853
-0.000225282
-0.000245797
-0.000264083
-9.33677e-05
-9.34668e-05
-9.3747e-05
-9.42544e-05
-9.49884e-05
-9.59462e-05
-9.71277e-05
-9.85391e-05
-0.000100194
-0.000102118
-0.000104347
-0.000106935
-0.000109951
-0.000113483
-0.000117636
-0.000122535
-0.000128318
-0.000135132
-0.000143121
-0.000152392
-0.000162961
-0.000174545
-0.000186559
-0.000197532
-0.000204916
-8.30469e-05
-8.31276e-05
-8.33688e-05
-8.38156e-05
-8.4466e-05
-8.53155e-05
-8.63608e-05
-8.76032e-05
-8.90497e-05
-9.07159e-05
-9.26272e-05
-9.48209e-05
-9.73457e-05
-0.000100261
-0.000103637
-0.000107543
-0.000112051
-0.000117213
-0.000123044
-0.000129487
-0.000136348
-0.000143189
-0.000149243
-0.00015322
-0.000153263
-7.30349e-05
-7.30943e-05
-7.32906e-05
-7.36671e-05
-7.42202e-05
-7.49427e-05
-7.58279e-05
-7.68717e-05
-7.80743e-05
-7.94418e-05
-8.09878e-05
-8.27334e-05
-8.4707e-05
-8.69415e-05
-8.94702e-05
-9.232e-05
-9.55017e-05
-9.89949e-05
-0.000102725
-0.000106533
-0.000110122
-0.000113001
-0.000114418
-0.000113317
-0.000108351
-6.33392e-05
-6.33748e-05
-6.35213e-05
-6.38197e-05
-6.42642e-05
-6.4845e-05
-6.55516e-05
-6.63748e-05
-6.73079e-05
-6.8348e-05
-6.9497e-05
-7.07613e-05
-7.21503e-05
-7.36726e-05
-7.53315e-05
-7.7117e-05
-7.89951e-05
-8.08938e-05
-8.2683e-05
-8.41491e-05
-8.49626e-05
-8.46423e-05
-8.25262e-05
-7.77687e-05
-6.9386e-05
-5.39682e-05
-5.39782e-05
-5.40712e-05
-5.42855e-05
-5.46131e-05
-5.50416e-05
-5.55568e-05
-5.61446e-05
-5.67919e-05
-5.74877e-05
-5.82234e-05
-5.89919e-05
-5.97863e-05
-6.05951e-05
-6.13976e-05
-6.21556e-05
-6.28043e-05
-6.32391e-05
-6.33008e-05
-6.27565e-05
-6.12806e-05
-5.84364e-05
-5.36673e-05
-4.63073e-05
-3.5626e-05
-4.49312e-05
-4.49142e-05
-4.49512e-05
-4.50775e-05
-4.5283e-05
-4.55526e-05
-4.58691e-05
-4.62137e-05
-4.65679e-05
-4.69134e-05
-4.72325e-05
-4.75072e-05
-4.77169e-05
-4.78346e-05
-4.78214e-05
-4.762e-05
-4.71459e-05
-4.62778e-05
-4.48458e-05
-4.26195e-05
-3.92974e-05
-3.44995e-05
-2.7769e-05
-1.85867e-05
-6.40528e-06
-3.62374e-05
-3.61927e-05
-3.61725e-05
-3.6209e-05
-3.629e-05
-3.63983e-05
-3.65136e-05
-3.66137e-05
-3.66752e-05
-3.66739e-05
-3.65847e-05
-3.63809e-05
-3.60315e-05
-3.54979e-05
-3.47291e-05
-3.36557e-05
-3.21833e-05
-3.01844e-05
-2.74913e-05
-2.38885e-05
-1.91074e-05
-1.28259e-05
-4.67394e-06
5.75135e-06
1.88599e-05
-2.7896e-05
-2.78236e-05
-2.77462e-05
-2.76928e-05
-2.76497e-05
-2.75976e-05
-2.75141e-05
-2.73738e-05
-2.71498e-05
-2.6813e-05
-2.63331e-05
-2.56765e-05
-2.4805e-05
-2.36722e-05
-2.22198e-05
-2.03723e-05
-1.80319e-05
-1.50733e-05
-1.13382e-05
-6.63202e-06
-7.21883e-07
6.6609e-06
1.58135e-05
2.7048e-05
4.06714e-05
-1.99154e-05
-1.98159e-05
-1.96824e-05
-1.9541e-05
-1.93764e-05
-1.91681e-05
-1.88918e-05
-1.85201e-05
-1.8023e-05
-1.73686e-05
-1.65222e-05
-1.54461e-05
-1.40973e-05
-1.24249e-05
-1.03671e-05
-7.84662e-06
-4.76758e-06
-1.01125e-06
3.56669e-06
9.13785e-06
1.59005e-05
2.40762e-05
3.39019e-05
4.5619e-05
5.94574e-05
-1.23033e-05
-1.21776e-05
-1.19901e-05
-1.17639e-05
-1.14827e-05
-1.11249e-05
-1.06651e-05
-1.00744e-05
-9.32126e-06
-8.37147e-06
-7.18811e-06
-5.73077e-06
-3.95402e-06
-1.8052e-06
7.78268e-07
3.87182e-06
7.56656e-06
1.19716e-05
1.72158e-05
2.34475e-05
3.08334e-05
3.95544e-05
4.97987e-05
6.1752e-05
7.55861e-05
-5.06563e-06
-4.91524e-06
-4.67669e-06
-4.37024e-06
-3.97879e-06
-3.48031e-06
-2.84873e-06
-2.05452e-06
-1.06524e-06
1.54297e-07
1.64209e-06
3.43957e-06
5.5928e-06
8.15426e-06
1.11849e-05
1.47565e-05
1.89531e-05
2.38731e-05
2.96293e-05
3.63483e-05
4.41689e-05
5.32375e-05
6.37025e-05
7.57063e-05
8.93765e-05
1.7928e-06
1.96612e-06
2.25224e-06
2.6335e-06
3.12746e-06
3.75622e-06
4.546e-06
5.52633e-06
6.72974e-06
8.19146e-06
9.94947e-06
1.20449e-05
1.45231e-05
1.74349e-05
2.08381e-05
2.47992e-05
2.93946e-05
3.47113e-05
4.08466e-05
4.79077e-05
5.60087e-05
6.52673e-05
7.57999e-05
8.77149e-05
0.000101106
8.26914e-06
8.46336e-06
8.79308e-06
9.24297e-06
9.83076e-06
1.05784e-05
1.15115e-05
1.26593e-05
1.40537e-05
1.57292e-05
1.77227e-05
2.00743e-05
2.28274e-05
2.60302e-05
2.97363e-05
3.40063e-05
3.89085e-05
4.45187e-05
5.09201e-05
5.82022e-05
6.64582e-05
7.5782e-05
8.6264e-05
9.79859e-05
0.000111015
1.43623e-05
1.45753e-05
1.49443e-05
1.54561e-05
1.61285e-05
1.69827e-05
1.80438e-05
1.93399e-05
2.09017e-05
2.27624e-05
2.49574e-05
2.75247e-05
3.05052e-05
3.39435e-05
3.78887e-05
4.23954e-05
4.75233e-05
5.3338e-05
5.99099e-05
6.7313e-05
7.56226e-05
8.49132e-05
9.52541e-05
0.000106706
0.000119316
2.0073e-05
2.03025e-05
2.07063e-05
2.12732e-05
2.20206e-05
2.2969e-05
2.41424e-05
2.55674e-05
2.72733e-05
2.92914e-05
3.1655e-05
3.43996e-05
3.75631e-05
4.11861e-05
4.53131e-05
4.99921e-05
5.52754e-05
6.12187e-05
6.78809e-05
7.53228e-05
8.36048e-05
9.27851e-05
0.000102916
0.000114042
0.000126194
2.54039e-05
2.56476e-05
2.60816e-05
2.66966e-05
2.75094e-05
2.85396e-05
2.98096e-05
3.13447e-05
3.31721e-05
3.5321e-05
3.78222e-05
4.07084e-05
4.4014e-05
4.77759e-05
5.20333e-05
5.68285e-05
6.22063e-05
6.82138e-05
7.48999e-05
8.23138e-05
9.05034e-05
9.95135e-05
0.000109383
0.000120143
0.000131813
3.03594e-05
3.0615e-05
3.10747e-05
3.17309e-05
3.25996e-05
3.36993e-05
3.5051e-05
3.66779e-05
3.86053e-05
4.08598e-05
4.34698e-05
4.64646e-05
4.98755e-05
5.3735e-05
5.80779e-05
6.29404e-05
6.83609e-05
7.43787e-05
8.10338e-05
8.83657e-05
9.64119e-05
0.000105206
0.000114777
0.000125144
0.000136319
3.49455e-05
3.52108e-05
3.56918e-05
3.63824e-05
3.72979e-05
3.84554e-05
3.98743e-05
4.15758e-05
4.3583e-05
4.59199e-05
4.86121e-05
5.16858e-05
5.51688e-05
5.90897e-05
6.34786e-05
6.83666e-05
7.37859e-05
7.97691e-05
8.63485e-05
9.35554e-05
0.000101418
0.000109963
0.000119207
0.000129165
0.000139839
3.91697e-05
3.94425e-05
3.99407e-05
4.06593e-05
4.16129e-05
4.28171e-05
4.42896e-05
4.60497e-05
4.81179e-05
5.05159e-05
5.32661e-05
5.6392e-05
5.99177e-05
6.38682e-05
6.82692e-05
7.3147e-05
7.85285e-05
8.44402e-05
9.09078e-05
9.79557e-05
0.000105605
0.000113874
0.000122775
0.000132314
0.000142488
4.3041e-05
4.33194e-05
4.38307e-05
4.45712e-05
4.55546e-05
4.67952e-05
4.83087e-05
5.01125e-05
5.22247e-05
5.46644e-05
5.74512e-05
6.06054e-05
6.41481e-05
6.81006e-05
7.24847e-05
7.73224e-05
8.26356e-05
8.84457e-05
9.47729e-05
0.000101636
0.000109049
0.000117025
0.000125571
0.000134687
0.000144368
4.65695e-05
4.68515e-05
4.73722e-05
4.81291e-05
4.91347e-05
5.0402e-05
5.19451e-05
5.3779e-05
5.59197e-05
5.83837e-05
6.11878e-05
6.43497e-05
6.7887e-05
7.18179e-05
7.61606e-05
8.09331e-05
8.61532e-05
9.18377e-05
9.8002e-05
0.000104659
0.000111821
0.000119493
0.000127678
0.000136373
0.00014557
4.97663e-05
5.00502e-05
5.05769e-05
5.13449e-05
5.23659e-05
5.36512e-05
5.52132e-05
5.70651e-05
5.92205e-05
6.16933e-05
6.4498e-05
6.76493e-05
7.11621e-05
7.50513e-05
7.93321e-05
8.40189e-05
8.91258e-05
9.46657e-05
0.00010065
0.000107088
0.000113986
0.000121347
0.00012917
0.00013745
0.000146174
5.26434e-05
5.29276e-05
5.34573e-05
5.42318e-05
5.52616e-05
5.65571e-05
5.81287e-05
5.99876e-05
6.21453e-05
6.46135e-05
6.74041e-05
7.05292e-05
7.40011e-05
7.7832e-05
8.20339e-05
8.66184e-05
9.15962e-05
9.69769e-05
0.000102768
0.000108977
0.000115605
0.000122653
0.000130116
0.000137988
0.000146254
5.52136e-05
5.54967e-05
5.60266e-05
5.68032e-05
5.78364e-05
5.91348e-05
6.07076e-05
6.25639e-05
6.47132e-05
6.7165e-05
6.99289e-05
7.30146e-05
7.64319e-05
8.01905e-05
8.42999e-05
8.87688e-05
9.36053e-05
9.88159e-05
0.000104406
0.000110378
0.000116733
0.000123468
0.000130577
0.000138051
0.000145874
5.74902e-05
5.77709e-05
5.82984e-05
5.90734e-05
6.01049e-05
6.14001e-05
6.29666e-05
6.4812e-05
6.69436e-05
6.93688e-05
7.20953e-05
7.51304e-05
7.84817e-05
8.21568e-05
8.61627e-05
9.05058e-05
9.51917e-05
0.000100225
0.000105607
0.00011134
0.000117421
0.000123847
0.000130609
0.000137696
0.000145092
5.94868e-05
5.9764e-05
6.0287e-05
6.10571e-05
6.20824e-05
6.33689e-05
6.49228e-05
6.67498e-05
6.88557e-05
7.12458e-05
7.39258e-05
7.69012e-05
8.01774e-05
8.37599e-05
8.76538e-05
9.18633e-05
9.63921e-05
0.000101242
0.000106414
0.000111907
0.000117717
0.000123838
0.000130261
0.000136974
0.000143961
6.12174e-05
6.14902e-05
6.20068e-05
6.27691e-05
6.37843e-05
6.50574e-05
6.65931e-05
6.83956e-05
7.04689e-05
7.28168e-05
7.54429e-05
7.83509e-05
8.15447e-05
8.50276e-05
8.88031e-05
9.28736e-05
9.72409e-05
0.000101905
0.000106866
0.00011212
0.000117662
0.000123485
0.00012958
0.000135932
0.000142527
6.26961e-05
6.29637e-05
6.34723e-05
6.42243e-05
6.52262e-05
6.64818e-05
6.79945e-05
6.97673e-05
7.18024e-05
7.41021e-05
7.66683e-05
7.95031e-05
8.26086e-05
8.59868e-05
8.96393e-05
9.35672e-05
9.77706e-05
0.000102249
0.000106999
0.000112016
0.000117296
0.00012283
0.000128606
0.000134612
0.000140832
6.39372e-05
6.41989e-05
6.46981e-05
6.54378e-05
6.64235e-05
6.76582e-05
6.9144e-05
7.08826e-05
7.28749e-05
7.51216e-05
7.76231e-05
8.038e-05
8.33931e-05
8.66628e-05
9.01894e-05
9.39727e-05
9.80115e-05
0.000102303
0.000106845
0.000111631
0.000116655
0.000121907
0.000127377
0.000133052
0.000138914
6.49548e-05
6.521e-05
6.56987e-05
6.64243e-05
6.73915e-05
6.86025e-05
7.00582e-05
7.17591e-05
7.37048e-05
7.58947e-05
7.83279e-05
8.10036e-05
8.39212e-05
8.708e-05
9.04791e-05
9.41171e-05
9.79917e-05
0.0001021
0.000106437
0.000110996
0.000115771
0.000120752
0.000125928
0.000131285
0.000136807
6.5763e-05
6.60113e-05
6.64885e-05
6.71986e-05
6.81454e-05
6.93303e-05
7.07534e-05
7.24137e-05
7.431e-05
7.64402e-05
7.88024e-05
8.13944e-05
8.42147e-05
8.72614e-05
9.05325e-05
9.40257e-05
9.77379e-05
0.000101665
0.000105801
0.000110141
0.000114675
0.000119395
0.000124288
0.000129341
0.00013454
6.63755e-05
6.66167e-05
6.70818e-05
6.77751e-05
6.87001e-05
6.98571e-05
7.12454e-05
7.28631e-05
7.47077e-05
7.67762e-05
7.90655e-05
8.15725e-05
8.42945e-05
8.72287e-05
9.03724e-05
9.37223e-05
9.72744e-05
0.000101024
0.000104965
0.000109091
0.000113393
0.000117862
0.000122485
0.00012725
0.000132141
6.6806e-05
6.70399e-05
6.74923e-05
6.81681e-05
6.907e-05
7.01978e-05
7.15497e-05
7.31231e-05
7.49146e-05
7.692e-05
7.91354e-05
8.15566e-05
8.41802e-05
8.70026e-05
9.00201e-05
9.32288e-05
9.66243e-05
0.000100201
0.000103953
0.000107873
0.000111952
0.000116179
0.000120545
0.000125034
0.000129634
6.7068e-05
6.72943e-05
6.77338e-05
6.83913e-05
6.92693e-05
7.03668e-05
7.16813e-05
7.32094e-05
7.49467e-05
7.68883e-05
7.90293e-05
8.13649e-05
8.38906e-05
8.66022e-05
8.94956e-05
9.25661e-05
9.58088e-05
9.92178e-05
0.000102787
0.000106508
0.000110372
0.00011437
0.000118489
0.000122718
0.000127042
6.71742e-05
6.7393e-05
6.78193e-05
6.84582e-05
6.93117e-05
7.03783e-05
7.16547e-05
7.31369e-05
7.48195e-05
7.66971e-05
7.87638e-05
8.10143e-05
8.34433e-05
8.6046e-05
8.88177e-05
9.17534e-05
9.48476e-05
9.80943e-05
0.000101487
0.000105017
0.000108676
0.000112454
0.000116339
0.000120321
0.000124384
6.71375e-05
6.73488e-05
6.77617e-05
6.83818e-05
6.92105e-05
7.02457e-05
7.14838e-05
7.29197e-05
7.45477e-05
7.63615e-05
7.83546e-05
8.0521e-05
8.28548e-05
8.53509e-05
8.8004e-05
9.08086e-05
9.37591e-05
9.68491e-05
0.000100072
0.000103419
0.000106881
0.00011045
0.000114114
0.000117861
0.000121678
6.697e-05
6.71738e-05
6.75734e-05
6.81747e-05
6.89784e-05
6.99823e-05
7.11819e-05
7.25717e-05
7.41454e-05
7.5896e-05
7.78165e-05
7.99002e-05
8.2141e-05
8.45331e-05
8.70708e-05
8.97485e-05
9.25603e-05
9.54995e-05
9.8559e-05
0.000101731
0.000105007
0.000108376
0.00011183
0.000115355
0.000118939
6.66836e-05
6.68801e-05
6.72665e-05
6.78489e-05
6.86279e-05
6.96005e-05
7.07618e-05
7.2106e-05
7.36261e-05
7.53144e-05
7.71636e-05
7.91666e-05
8.13166e-05
8.36076e-05
8.60336e-05
8.85888e-05
9.12669e-05
9.40613e-05
9.69649e-05
9.99697e-05
0.000103067
0.000106248
0.000109502
0.000112817
0.000116182
6.62896e-05
6.6479e-05
6.68525e-05
6.74163e-05
6.81707e-05
6.91123e-05
7.0236e-05
7.15351e-05
7.30024e-05
7.46298e-05
7.64093e-05
7.83335e-05
8.03954e-05
8.25884e-05
8.49066e-05
8.73437e-05
8.98935e-05
9.25493e-05
9.53039e-05
9.81494e-05
0.000101078
0.000104079
0.000107144
0.000110261
0.00011342
6.5799e-05
6.59816e-05
6.63425e-05
6.6888e-05
6.76182e-05
6.85294e-05
6.9616e-05
7.0871e-05
7.22866e-05
7.38544e-05
7.55662e-05
7.74139e-05
7.93904e-05
8.14889e-05
8.37032e-05
8.60269e-05
8.84537e-05
9.0977e-05
9.35894e-05
9.62834e-05
9.90507e-05
0.000101882
0.000104769
0.0001077
0.000110664
6.52225e-05
6.53985e-05
6.57471e-05
6.62748e-05
6.69814e-05
6.78627e-05
6.8913e-05
7.01249e-05
7.14902e-05
7.30002e-05
7.46461e-05
7.64199e-05
7.83139e-05
8.03214e-05
8.24358e-05
8.46509e-05
8.69601e-05
8.93568e-05
9.18339e-05
9.43839e-05
9.69987e-05
9.96697e-05
0.000102388
0.000105143
0.000107924
6.457e-05
6.47398e-05
6.50766e-05
6.5587e-05
6.62705e-05
6.71228e-05
6.81378e-05
6.93078e-05
7.06242e-05
7.20781e-05
7.36604e-05
7.53627e-05
7.71774e-05
7.90974e-05
8.11162e-05
8.32272e-05
8.54241e-05
8.77003e-05
9.00488e-05
9.24622e-05
9.49326e-05
9.74518e-05
0.000100011
0.0001026
0.00010521
6.38513e-05
6.40151e-05
6.43406e-05
6.48343e-05
6.54955e-05
6.63197e-05
6.73005e-05
6.84298e-05
6.9699e-05
7.10986e-05
7.26196e-05
7.42532e-05
7.59917e-05
7.78278e-05
7.97549e-05
8.17667e-05
8.38566e-05
8.60182e-05
8.82445e-05
9.05284e-05
9.28624e-05
9.52382e-05
9.76474e-05
0.000100081
0.00010253
6.30755e-05
6.32339e-05
6.35486e-05
6.40262e-05
6.46659e-05
6.54629e-05
6.64106e-05
6.75008e-05
6.87243e-05
7.00717e-05
7.15337e-05
7.31013e-05
7.47667e-05
7.65226e-05
7.83623e-05
8.02794e-05
8.22675e-05
8.43201e-05
8.64307e-05
8.85921e-05
9.07971e-05
9.30377e-05
9.5306e-05
9.75933e-05
9.98905e-05
6.22516e-05
6.24048e-05
6.27093e-05
6.31716e-05
6.37907e-05
6.45616e-05
6.54774e-05
6.65298e-05
6.77095e-05
6.90068e-05
7.04121e-05
7.19165e-05
7.3512e-05
7.51913e-05
7.69476e-05
7.87745e-05
8.06659e-05
8.26153e-05
8.46162e-05
8.66619e-05
8.87451e-05
9.08584e-05
9.29941e-05
9.51439e-05
9.72993e-05
6.13878e-05
6.15364e-05
6.18314e-05
6.22791e-05
6.28784e-05
6.36243e-05
6.45096e-05
6.55258e-05
6.66634e-05
6.79126e-05
6.92637e-05
7.07077e-05
7.22365e-05
7.38426e-05
7.55195e-05
7.72609e-05
7.90604e-05
8.0912e-05
8.28092e-05
8.47455e-05
8.6714e-05
8.87074e-05
9.07185e-05
9.27393e-05
9.47619e-05
6.04922e-05
6.06367e-05
6.09228e-05
6.13567e-05
6.19373e-05
6.26593e-05
6.35155e-05
6.4497e-05
6.55943e-05
6.67975e-05
6.80968e-05
6.94831e-05
7.09482e-05
7.24849e-05
7.40863e-05
7.57464e-05
7.74589e-05
7.92179e-05
8.10171e-05
8.28503e-05
8.47106e-05
8.65914e-05
8.84855e-05
9.03854e-05
9.22836e-05
5.95724e-05
5.97132e-05
5.99912e-05
6.04123e-05
6.09752e-05
6.16745e-05
6.25027e-05
6.34512e-05
6.45101e-05
6.56694e-05
6.69193e-05
6.82506e-05
6.96551e-05
7.11256e-05
7.26554e-05
7.42384e-05
7.58686e-05
7.75401e-05
7.92468e-05
8.09827e-05
8.27414e-05
8.45163e-05
8.63006e-05
8.80873e-05
8.98691e-05
5.86356e-05
5.87734e-05
5.90441e-05
5.94532e-05
5.99993e-05
6.06771e-05
6.1479e-05
6.23959e-05
6.34182e-05
6.45357e-05
6.57385e-05
6.70175e-05
6.83644e-05
6.97721e-05
7.12339e-05
7.27439e-05
7.42962e-05
7.5885e-05
7.75046e-05
7.91489e-05
8.08119e-05
8.24874e-05
8.41688e-05
8.58495e-05
8.75227e-05
5.76886e-05
5.78241e-05
5.80883e-05
5.84863e-05
5.90169e-05
5.96744e-05
6.04512e-05
6.13382e-05
6.23257e-05
6.34034e-05
6.45614e-05
6.57906e-05
6.70828e-05
6.84309e-05
6.98284e-05
7.12693e-05
7.27479e-05
7.42587e-05
7.57961e-05
7.73543e-05
7.89275e-05
8.05097e-05
8.20947e-05
8.36763e-05
8.52479e-05
5.67381e-05
5.68719e-05
5.71305e-05
5.75185e-05
5.80345e-05
5.8673e-05
5.94261e-05
6.02848e-05
6.12391e-05
6.2279e-05
6.33945e-05
6.45764e-05
6.58167e-05
6.71083e-05
6.84447e-05
6.98203e-05
7.12294e-05
7.26667e-05
7.41267e-05
7.56039e-05
7.70928e-05
7.85875e-05
8.00824e-05
8.15713e-05
8.30482e-05
5.57902e-05
5.59232e-05
5.61772e-05
5.65561e-05
5.70587e-05
5.76793e-05
5.84101e-05
5.92419e-05
6.01649e-05
6.11689e-05
6.22439e-05
6.33809e-05
6.4572e-05
6.58099e-05
6.70887e-05
6.84025e-05
6.9746e-05
7.11139e-05
7.25011e-05
7.39022e-05
7.5312e-05
7.67249e-05
7.81354e-05
7.95378e-05
8.09265e-05
5.4851e-05
5.4984e-05
5.52343e-05
5.56053e-05
5.60956e-05
5.66996e-05
5.74094e-05
5.82158e-05
5.9109e-05
6.00788e-05
6.11154e-05
6.22098e-05
6.33541e-05
6.45413e-05
6.57654e-05
6.70208e-05
6.83024e-05
6.9605e-05
7.09237e-05
7.22534e-05
7.3589e-05
7.49253e-05
7.6257e-05
7.75787e-05
7.88851e-05
5.39261e-05
5.406e-05
5.43079e-05
5.4672e-05
5.51511e-05
5.57397e-05
5.64298e-05
5.72122e-05
5.80772e-05
5.90145e-05
6.00146e-05
6.10684e-05
6.21683e-05
6.33073e-05
6.44797e-05
6.56799e-05
6.6903e-05
6.81441e-05
6.93984e-05
7.0661e-05
7.19272e-05
7.31918e-05
7.44499e-05
7.56965e-05
7.69264e-05
5.30209e-05
5.31569e-05
5.34035e-05
5.37619e-05
5.42311e-05
5.48054e-05
5.54769e-05
5.62366e-05
5.70747e-05
5.79812e-05
5.89464e-05
5.99616e-05
6.10192e-05
6.21126e-05
6.32359e-05
6.43839e-05
6.55519e-05
6.6735e-05
6.79288e-05
6.91285e-05
7.03296e-05
7.15273e-05
7.27168e-05
7.38934e-05
7.50521e-05
5.21409e-05
5.22801e-05
5.25269e-05
5.28808e-05
5.3341e-05
5.39022e-05
5.45563e-05
5.52944e-05
5.61069e-05
5.69838e-05
5.79157e-05
5.88941e-05
5.99114e-05
6.09613e-05
6.2038e-05
6.31367e-05
6.42525e-05
6.53811e-05
6.6518e-05
6.76587e-05
6.87989e-05
6.99341e-05
7.10597e-05
7.21712e-05
7.32639e-05
5.12911e-05
5.14351e-05
5.16834e-05
5.20341e-05
5.24866e-05
5.30356e-05
5.36733e-05
5.43908e-05
5.51786e-05
5.60271e-05
5.69271e-05
5.78701e-05
5.8849e-05
5.98573e-05
6.08899e-05
6.19417e-05
6.30083e-05
6.40854e-05
6.51688e-05
6.62543e-05
6.73375e-05
6.84144e-05
6.94804e-05
7.05315e-05
7.15631e-05
5.04767e-05
5.06271e-05
5.08787e-05
5.12275e-05
5.16733e-05
5.22111e-05
5.28331e-05
5.35307e-05
5.42946e-05
5.51156e-05
5.59847e-05
5.68937e-05
5.78355e-05
5.88042e-05
5.97946e-05
6.08019e-05
6.1822e-05
6.28506e-05
6.38837e-05
6.49174e-05
6.59474e-05
6.69699e-05
6.79806e-05
6.89756e-05
6.99506e-05
4.97028e-05
4.98616e-05
5.01183e-05
5.04667e-05
5.09068e-05
5.1434e-05
5.20409e-05
5.2719e-05
5.34596e-05
5.42536e-05
5.50925e-05
5.59684e-05
5.68746e-05
5.78051e-05
5.87552e-05
5.97202e-05
6.06961e-05
6.16789e-05
6.26648e-05
6.36499e-05
6.46303e-05
6.56021e-05
6.65615e-05
6.75045e-05
6.84272e-05
4.89747e-05
4.91443e-05
4.94084e-05
4.97577e-05
5.0193e-05
5.071e-05
5.13018e-05
5.19605e-05
5.26778e-05
5.34451e-05
5.42542e-05
5.50977e-05
5.5969e-05
5.68628e-05
5.77741e-05
5.86987e-05
5.96327e-05
6.05723e-05
6.15138e-05
6.24534e-05
6.33875e-05
6.43123e-05
6.5224e-05
6.6119e-05
6.69936e-05
4.8298e-05
4.84814e-05
4.87553e-05
4.91069e-05
4.95379e-05
5.00448e-05
5.06212e-05
5.126e-05
5.19534e-05
5.26936e-05
5.3473e-05
5.42843e-05
5.51216e-05
5.59795e-05
5.68535e-05
5.77395e-05
5.86337e-05
5.95324e-05
6.04322e-05
6.13292e-05
6.22201e-05
6.31012e-05
6.39689e-05
6.48197e-05
6.565e-05
4.76788e-05
4.78796e-05
4.81663e-05
4.85215e-05
4.89483e-05
4.94444e-05
5.00043e-05
5.06219e-05
5.12904e-05
5.20027e-05
5.27517e-05
5.35309e-05
5.43344e-05
5.51572e-05
5.59951e-05
5.6844e-05
5.77003e-05
5.85604e-05
5.94209e-05
6.02783e-05
6.1129e-05
6.19696e-05
6.27967e-05
6.36068e-05
6.43966e-05
4.71241e-05
4.73468e-05
4.76497e-05
4.80096e-05
4.84316e-05
4.89153e-05
4.94566e-05
5.00508e-05
5.06925e-05
5.13753e-05
5.20929e-05
5.28393e-05
5.3609e-05
5.43973e-05
5.52e-05
5.60133e-05
5.68335e-05
5.76571e-05
5.84808e-05
5.93011e-05
6.01146e-05
6.09179e-05
6.17076e-05
6.24805e-05
6.32333e-05
4.66425e-05
4.68929e-05
4.72157e-05
4.75806e-05
4.7996e-05
4.84642e-05
4.89834e-05
4.95509e-05
5.01627e-05
5.08136e-05
5.14982e-05
5.22108e-05
5.29465e-05
5.37006e-05
5.4469e-05
5.52479e-05
5.60338e-05
5.6823e-05
5.76123e-05
5.83982e-05
5.91772e-05
5.99462e-05
6.07017e-05
6.14406e-05
6.21598e-05
4.6245e-05
4.65304e-05
4.68771e-05
4.72461e-05
4.76509e-05
4.80985e-05
4.85902e-05
4.91259e-05
4.97035e-05
5.03193e-05
5.09685e-05
5.16462e-05
5.23473e-05
5.30673e-05
5.38022e-05
5.45481e-05
5.53013e-05
5.60582e-05
5.68154e-05
5.75694e-05
5.83169e-05
5.90544e-05
5.97788e-05
6.0487e-05
6.11758e-05
4.59472e-05
4.62763e-05
4.66506e-05
4.70203e-05
4.74074e-05
4.7826e-05
4.8282e-05
4.87788e-05
4.93165e-05
4.98929e-05
5.05039e-05
5.11448e-05
5.18107e-05
5.24969e-05
5.31991e-05
5.39134e-05
5.46357e-05
5.53624e-05
5.60899e-05
5.68147e-05
5.75333e-05
5.82424e-05
5.89387e-05
5.96191e-05
6.02808e-05
4.57721e-05
4.61549e-05
4.65588e-05
4.6921e-05
4.72779e-05
4.76543e-05
4.80629e-05
4.85111e-05
4.90017e-05
4.95335e-05
5.0103e-05
5.07054e-05
5.13354e-05
5.19881e-05
5.26586e-05
5.33427e-05
5.40362e-05
5.4735e-05
5.54353e-05
5.61335e-05
5.68261e-05
5.75095e-05
5.81807e-05
5.88365e-05
5.9474e-05
4.57567e-05
4.62023e-05
4.66328e-05
4.69705e-05
4.72761e-05
4.75906e-05
4.79353e-05
4.83224e-05
4.87569e-05
4.92382e-05
4.97627e-05
5.03249e-05
5.09188e-05
5.15386e-05
5.21789e-05
5.28348e-05
5.35016e-05
5.41749e-05
5.48507e-05
5.55252e-05
5.61945e-05
5.68554e-05
5.75044e-05
5.81385e-05
5.87549e-05
4.59652e-05
4.64747e-05
4.69154e-05
4.71958e-05
4.74156e-05
4.76392e-05
4.78981e-05
4.82088e-05
4.8577e-05
4.90018e-05
4.94782e-05
4.99991e-05
5.05572e-05
5.11455e-05
5.17575e-05
5.23875e-05
5.30303e-05
5.36809e-05
5.43351e-05
5.49887e-05
5.56379e-05
5.62791e-05
5.69089e-05
5.75243e-05
5.81224e-05
4.65148e-05
4.70611e-05
4.74654e-05
4.76274e-05
4.77072e-05
4.77991e-05
4.79447e-05
4.81611e-05
4.84525e-05
4.88157e-05
4.92421e-05
4.97221e-05
5.0246e-05
5.0805e-05
5.13915e-05
5.19986e-05
5.26204e-05
5.32516e-05
5.38873e-05
5.45232e-05
5.51553e-05
5.57798e-05
5.63934e-05
5.6993e-05
5.75757e-05
4.76119e-05
4.80949e-05
4.83561e-05
4.82938e-05
4.81524e-05
4.80594e-05
4.80582e-05
4.81626e-05
4.83696e-05
4.86684e-05
4.90454e-05
4.94867e-05
4.99795e-05
5.05129e-05
5.10776e-05
5.16656e-05
5.22701e-05