/*--------------------------------*- C++ -*----------------------------------*\
  =========                 |
  \\      /  F ield         | OpenFOAM: The Open Source CFD Toolbox
   \\    /   O peration     | Website:  https://openfoam.org
    \\  /    A nd           | Version:  13
     \\/     M anipulation  |
\*---------------------------------------------------------------------------*/
FoamFile
{
    format      ascii;
    class       volScalarField;
    location    "14";
    object      p;
}
// * * * * * * * * * * * * * * * * * * * * * * * * * * * * * * * * * * * * * //

dimensions      [0 2 -2 0 0 0 0];

internalField   nonuniform List<scalar> 
6440
(
133.708
133.708
133.709
133.71
133.711
133.71
133.707
133.703
133.702
133.712
133.732
133.758
133.784
133.803
133.809
133.805
133.8
133.798
133.798
133.797
133.796
133.795
133.795
133.796
133.797
133.709
133.709
133.71
133.709
133.707
133.705
133.7
133.697
133.697
133.708
133.727
133.748
133.763
133.773
133.779
133.786
133.794
133.797
133.798
133.797
133.796
133.796
133.796
133.797
133.798
133.706
133.707
133.706
133.702
133.696
133.69
133.685
133.68
133.675
133.673
133.678
133.685
133.694
133.71
133.731
133.754
133.772
133.785
133.791
133.793
133.793
133.794
133.795
133.797
133.798
133.698
133.698
133.694
133.687
133.68
133.675
133.671
133.664
133.653
133.639
133.63
133.63
133.645
133.673
133.708
133.744
133.768
133.781
133.787
133.79
133.791
133.793
133.794
133.796
133.798
133.683
133.683
133.679
133.674
133.669
133.667
133.663
133.655
133.642
133.628
133.621
133.625
133.645
133.682
133.724
133.756
133.776
133.786
133.79
133.791
133.791
133.791
133.792
133.792
133.795
133.666
133.667
133.665
133.659
133.655
133.653
133.652
133.65
133.647
133.648
133.659
133.683
133.717
133.751
133.774
133.786
133.793
133.796
133.796
133.795
133.791
133.788
133.786
133.786
133.791
133.646
133.646
133.632
133.606
133.587
133.585
133.597
133.625
133.658
133.693
133.731
133.771
133.801
133.812
133.809
133.804
133.801
133.798
133.795
133.789
133.785
133.782
133.78
133.781
133.787
133.601
133.58
133.52
133.453
133.417
133.425
133.474
133.554
133.642
133.719
133.778
133.818
133.831
133.824
133.809
133.799
133.792
133.785
133.779
133.775
133.774
133.772
133.771
133.776
133.786
133.501
133.45
133.363
133.288
133.269
133.296
133.373
133.492
133.614
133.713
133.777
133.806
133.805
133.79
133.778
133.77
133.763
133.756
133.752
133.751
133.75
133.749
133.756
133.771
133.787
133.402
133.353
133.284
133.237
133.229
133.256
133.338
133.459
133.577
133.662
133.707
133.717
133.712
133.709
133.712
133.716
133.718
133.716
133.711
133.705
133.702
133.71
133.733
133.762
133.788
133.373
133.337
133.289
133.254
133.246
133.276
133.344
133.432
133.516
133.571
133.593
133.592
133.59
133.6
133.623
133.646
133.657
133.653
133.64
133.627
133.628
133.655
133.704
133.752
133.794
133.412
133.383
133.341
133.304
133.287
133.298
133.336
133.389
133.441
133.469
133.471
133.461
133.458
133.473
133.506
133.539
133.554
133.551
133.538
133.531
133.55
133.61
133.693
133.759
133.818
133.485
133.451
133.401
133.352
133.314
133.3
133.309
133.329
133.339
133.327
133.301
133.279
133.27
133.288
133.331
133.375
133.408
133.428
133.443
133.469
133.526
133.625
133.735
133.808
133.875
133.546
133.508
133.448
133.383
133.325
133.28
133.246
133.207
133.161
133.119
133.09
133.077
133.084
133.114
133.164
133.22
133.275
133.329
133.388
133.459
133.556
133.684
133.811
133.885
133.963
133.571
133.532
133.465
133.386
133.304
133.221
133.133
133.044
132.975
132.928
132.898
132.898
132.927
132.974
133.032
133.099
133.175
133.259
133.355
133.464
133.587
133.723
133.853
133.949
134.067
133.549
133.505
133.432
133.342
133.236
133.114
132.984
132.865
132.778
132.729
132.716
132.737
132.784
132.847
132.923
133.01
133.11
133.22
133.342
133.472
133.607
133.746
133.873
133.996
134.167
133.465
133.418
133.345
133.245
133.117
132.962
132.803
132.673
132.588
132.547
132.551
132.589
132.655
132.74
132.84
132.953
133.076
133.209
133.349
133.495
133.643
133.794
133.934
134.078
134.27
133.335
133.29
133.217
133.111
132.964
132.791
132.623
132.498
132.421
132.396
132.409
132.464
132.547
132.659
132.786
132.924
133.067
133.216
133.372
133.534
133.703
133.878
134.05
134.237
134.417
133.187
133.145
133.074
132.961
132.812
132.637
132.477
132.358
132.297
132.278
132.297
132.362
132.467
132.603
132.757
132.917
133.076
133.235
133.399
133.573
133.759
133.961
134.161
134.391
134.505
133.041
133.002
132.931
132.821
132.675
132.513
132.362
132.26
132.208
132.191
132.217
132.285
132.409
132.572
132.743
132.912
133.076
133.235
133.395
133.565
133.748
133.946
134.153
134.383
134.383
132.906
132.87
132.803
132.702
132.576
132.435
132.309
132.224
132.175
132.153
132.178
132.249
132.393
132.554
132.712
132.868
133.016
133.157
133.295
133.436
133.581
133.722
133.832
133.847
133.404
132.782
132.751
132.693
132.61
132.503
132.393
132.295
132.226
132.19
132.177
132.195
132.275
132.401
132.536
132.669
132.801
132.93
133.052
133.168
133.279
133.384
133.466
133.495
133.397
133.089
132.667
132.642
132.597
132.53
132.454
132.378
132.312
132.271
132.259
132.262
132.283
132.347
132.441
132.54
132.641
132.746
132.852
132.953
133.046
133.13
133.199
133.237
133.22
133.109
132.876
132.558
132.541
132.508
132.464
132.415
132.373
132.344
132.337
132.35
132.367
132.385
132.424
132.476
132.538
132.609
132.689
132.773
132.855
132.93
132.992
133.034
133.046
133.009
132.905
132.721
132.454
132.444
132.425
132.397
132.374
132.362
132.365
132.389
132.422
132.443
132.456
132.467
132.489
132.524
132.572
132.631
132.697
132.762
132.819
132.864
132.888
132.883
132.837
132.741
132.589
132.351
132.348
132.339
132.327
132.319
132.327
132.355
132.401
132.449
132.47
132.475
132.47
132.473
132.49
132.521
132.565
132.616
132.667
132.71
132.741
132.751
132.735
132.685
132.596
132.466
132.25
132.251
132.249
132.243
132.243
132.259
132.297
132.355
132.413
132.443
132.441
132.424
132.416
132.424
132.448
132.484
132.527
132.568
132.601
132.621
132.621
132.598
132.547
132.464
132.35
132.154
132.154
132.152
132.146
132.142
132.15
132.177
132.228
132.29
132.333
132.332
132.313
132.304
132.315
132.343
132.382
132.423
132.461
132.489
132.503
132.498
132.471
132.419
132.342
132.238
132.058
132.057
132.047
132.031
132.012
131.995
131.987
132.006
132.062
132.114
132.122
132.113
132.123
132.155
132.201
132.253
132.303
132.345
132.373
132.384
132.377
132.349
132.299
132.226
132.13
131.97
131.96
131.935
131.901
131.861
131.808
131.748
131.713
131.735
131.775
131.79
131.81
131.864
131.939
132.02
132.098
132.166
132.217
132.25
132.264
132.258
132.231
132.182
132.113
132.024
131.891
131.87
131.826
131.776
131.713
131.623
131.487
131.358
131.301
131.311
131.333
131.404
131.529
131.671
131.804
131.92
132.013
132.08
132.122
132.141
132.137
132.112
132.067
132.001
131.916
131.838
131.803
131.74
131.666
131.576
131.421
131.185
130.936
130.775
130.741
130.776
130.914
131.139
131.367
131.565
131.727
131.85
131.937
131.991
132.016
132.017
131.995
131.951
131.888
131.804
131.827
131.775
131.688
131.588
131.443
131.214
130.876
130.498
130.227
130.146
130.191
130.409
130.734
131.054
131.322
131.533
131.688
131.794
131.86
131.893
131.898
131.878
131.836
131.772
131.69
131.862
131.794
131.685
131.547
131.36
131.065
130.637
130.143
129.783
129.661
129.717
129.978
130.377
130.773
131.102
131.355
131.537
131.661
131.737
131.775
131.782
131.763
131.72
131.656
131.571
131.929
131.855
131.733
131.574
131.343
131.014
130.532
129.97
129.57
129.436
129.478
129.718
130.127
130.564
130.93
131.211
131.411
131.544
131.625
131.665
131.672
131.652
131.608
131.54
131.452
132.039
131.965
131.838
131.652
131.413
131.076
130.61
130.07
129.679
129.492
129.481
129.651
130.031
130.461
130.83
131.116
131.319
131.452
131.53
131.567
131.571
131.548
131.498
131.428
131.333
132.194
132.126
131.992
131.803
131.559
131.26
130.87
130.403
130.027
129.821
129.734
129.819
130.11
130.479
130.813
131.081
131.269
131.389
131.458
131.487
131.484
131.453
131.399
131.318
131.219
132.403
132.339
132.205
132.014
131.792
131.539
131.23
130.84
130.493
130.262
130.131
130.143
130.332
130.61
130.881
131.107
131.262
131.358
131.41
131.425
131.411
131.371
131.305
131.22
131.109
132.655
132.592
132.463
132.287
132.076
131.853
131.589
131.265
130.956
130.728
130.592
130.562
130.645
130.821
131.024
131.185
131.294
131.358
131.385
131.383
131.354
131.301
131.227
131.128
131.01
132.933
132.872
132.745
132.571
132.371
132.156
131.912
131.644
131.396
131.211
131.092
131.008
131
131.082
131.209
131.299
131.356
131.383
131.384
131.36
131.314
131.247
131.158
131.052
130.921
133.207
133.15
133.014
132.844
132.648
132.443
132.23
132.022
131.848
131.716
131.582
131.448
131.36
131.355
131.405
131.431
131.44
131.43
131.401
131.355
131.29
131.207
131.107
130.985
130.846
133.434
133.387
133.252
133.085
132.909
132.736
132.576
132.433
132.316
132.192
132.028
131.851
131.705
131.629
131.606
131.575
131.538
131.492
131.434
131.364
131.281
131.182
131.066
130.936
130.783
133.589
133.559
133.444
133.3
133.163
133.041
132.94
132.849
132.749
132.6
132.412
132.214
132.017
131.889
131.802
131.721
131.643
131.563
131.478
131.386
131.284
131.169
131.042
130.896
130.737
133.667
133.657
133.586
133.488
133.404
133.34
133.286
133.222
133.112
132.948
132.754
132.529
132.287
132.113
131.981
131.861
131.748
131.639
131.53
131.417
131.297
131.168
131.026
130.874
130.702
133.697
133.701
133.676
133.638
133.616
133.603
133.58
133.527
133.418
133.264
133.05
132.78
132.512
132.31
132.142
131.989
131.849
131.716
131.586
131.455
131.319
131.177
131.025
130.859
130.682
133.716
133.718
133.718
133.737
133.776
133.812
133.819
133.778
133.692
133.534
133.28
132.977
132.7
132.475
132.279
132.103
131.942
131.79
131.643
131.496
131.348
131.194
131.03
130.86
130.673
133.741
133.732
133.737
133.786
133.877
133.962
134.004
133.991
133.922
133.721
133.435
133.125
132.842
132.601
132.389
132.199
132.024
131.858
131.698
131.539
131.38
131.216
131.046
130.865
130.676
133.77
133.753
133.754
133.807
133.927
134.053
134.126
134.156
134.064
133.82
133.511
133.206
132.937
132.695
132.478
132.279
132.095
131.919
131.749
131.582
131.414
131.243
131.065
130.883
130.686
133.8
133.779
133.775
133.823
133.948
134.088
134.187
134.216
134.082
133.828
133.533
133.252
132.996
132.76
132.544
132.343
132.153
131.972
131.797
131.623
131.449
131.273
131.092
130.903
130.707
133.827
133.806
133.798
133.84
133.956
134.077
134.166
134.173
134.028
133.784
133.517
133.262
133.024
132.801
132.591
132.391
132.201
132.018
131.839
131.662
131.484
131.305
131.12
130.932
130.732
133.847
133.827
133.815
133.844
133.924
134.029
134.097
134.07
133.92
133.705
133.477
133.252
133.034
132.824
132.622
132.427
132.239
132.056
131.876
131.698
131.519
131.337
131.153
130.961
130.764
133.855
133.831
133.806
133.817
133.872
133.937
133.997
133.953
133.81
133.625
133.427
133.228
133.03
132.834
132.641
132.453
132.269
132.088
131.909
131.731
131.552
131.371
131.186
130.997
130.8
133.85
133.814
133.758
133.743
133.797
133.86
133.892
133.833
133.707
133.545
133.374
133.198
133.017
132.834
132.651
132.47
132.291
132.114
131.938
131.762
131.584
131.404
131.222
131.033
130.84
133.827
133.776
133.701
133.683
133.71
133.781
133.798
133.726
133.615
133.475
133.325
133.165
132.999
132.828
132.655
132.482
132.309
132.136
131.964
131.79
131.615
131.438
131.256
131.072
130.881
133.791
133.735
133.667
133.647
133.665
133.719
133.709
133.635
133.534
133.413
133.279
133.133
132.979
132.819
132.655
132.489
132.322
132.155
131.986
131.816
131.645
131.47
131.293
131.111
130.926
133.761
133.71
133.656
133.639
133.652
133.672
133.629
133.566
133.473
133.363
133.239
133.104
132.959
132.808
132.652
132.493
132.333
132.17
132.007
131.841
131.673
131.503
131.329
131.153
130.97
133.749
133.707
133.665
133.65
133.654
133.636
133.576
133.513
133.426
133.322
133.205
133.078
132.941
132.797
132.649
132.496
132.341
132.185
132.026
131.864
131.701
131.534
131.366
131.193
131.017
133.76
133.727
133.696
133.685
133.668
133.609
133.552
133.479
133.391
133.29
133.178
133.055
132.925
132.787
132.645
132.498
132.349
132.197
132.043
131.887
131.728
131.566
131.401
131.235
131.063
133.788
133.769
133.747
133.738
133.688
133.601
133.539
133.458
133.365
133.265
133.155
133.037
132.911
132.778
132.641
132.5
132.356
132.209
132.06
131.908
131.754
131.597
131.438
131.275
131.11
133.825
133.818
133.814
133.794
133.709
133.61
133.532
133.443
133.347
133.245
133.137
133.021
132.899
132.771
132.638
132.502
132.363
132.22
132.076
131.929
131.779
131.627
131.472
131.316
131.156
133.86
133.861
133.877
133.84
133.723
133.627
133.529
133.432
133.333
133.23
133.122
133.008
132.889
132.764
132.636
132.504
132.369
132.231
132.091
131.949
131.804
131.657
131.508
131.356
131.203
133.887
133.892
133.91
133.857
133.724
133.63
133.525
133.422
133.321
133.217
133.11
132.997
132.88
132.759
132.634
132.506
132.375
132.242
132.106
131.968
131.828
131.686
131.541
131.396
131.247
133.906
133.913
133.92
133.85
133.717
133.618
133.515
133.413
133.31
133.206
133.098
132.988
132.873
132.755
132.633
132.508
132.381
132.252
132.121
131.987
131.852
131.714
131.575
131.434
131.292
133.916
133.93
133.923
133.832
133.716
133.609
133.504
133.402
133.299
133.195
133.088
132.979
132.866
132.751
132.632
132.511
132.388
132.262
132.135
132.006
131.875
131.742
131.607
131.473
131.335
133.917
133.937
133.924
133.814
133.711
133.599
133.491
133.389
133.287
133.184
133.078
132.971
132.86
132.747
132.631
132.514
132.394
132.272
132.149
132.024
131.897
131.769
131.64
131.509
131.378
133.912
133.931
133.914
133.789
133.689
133.583
133.476
133.375
133.274
133.172
133.068
132.962
132.854
132.744
132.631
132.516
132.4
132.282
132.163
132.042
131.919
131.795
131.67
131.546
131.419
133.905
133.917
133.884
133.761
133.664
133.562
133.459
133.359
133.26
133.159
133.057
132.954
132.848
132.74
132.63
132.518
132.405
132.291
132.176
132.059
131.94
131.821
131.701
131.58
131.459
133.896
133.906
133.849
133.74
133.64
133.54
133.441
133.342
133.244
133.146
133.046
132.944
132.841
132.735
132.628
132.52
132.41
132.3
132.188
132.075
131.96
131.845
131.729
131.614
131.497
133.883
133.893
133.814
133.722
133.618
133.518
133.421
133.324
133.228
133.131
133.033
132.934
132.833
132.731
132.626
132.521
132.415
132.308
132.199
132.09
131.979
131.868
131.757
131.645
131.535
133.866
133.879
133.777
133.695
133.595
133.495
133.4
133.305
133.21
133.116
133.02
132.923
132.825
132.725
132.624
132.521
132.418
132.315
132.21
132.104
131.998
131.891
131.783
131.677
131.569
133.855
133.862
133.74
133.666
133.569
133.471
133.377
133.284
133.192
133.099
133.006
132.911
132.816
132.718
132.62
132.521
132.421
132.321
132.219
132.117
132.014
131.911
131.808
131.705
131.603
133.853
133.843
133.711
133.634
133.541
133.445
133.353
133.262
133.172
133.082
132.991
132.898
132.805
132.711
132.616
132.519
132.423
132.326
132.228
132.129
132.03
131.931
131.831
131.733
131.634
133.848
133.816
133.688
133.603
133.511
133.418
133.328
133.239
133.151
133.063
132.974
132.885
132.794
132.703
132.61
132.517
132.424
132.33
132.235
132.14
132.045
131.949
131.854
131.759
131.665
133.828
133.78
133.661
133.568
133.478
133.387
133.3
133.213
133.128
133.043
132.957
132.87
132.782
132.694
132.604
132.514
132.424
132.333
132.242
132.15
132.058
131.966
131.874
131.784
131.693
133.794
133.731
133.624
133.53
133.44
133.354
133.269
133.186
133.104
133.021
132.938
132.854
132.769
132.684
132.597
132.51
132.423
132.336
132.248
132.159
132.071
131.982
131.894
131.807
131.721
133.742
133.667
133.575
133.483
133.399
133.316
133.235
133.156
133.077
132.998
132.918
132.837
132.756
132.673
132.589
132.506
132.421
132.337
132.252
132.167
132.082
131.997
131.912
131.829
131.746
133.67
133.593
133.514
133.431
133.352
133.274
133.199
133.123
133.048
132.973
132.897
132.819
132.741
132.661
132.581
132.5
132.419
132.338
132.256
132.174
132.092
132.01
131.93
131.849
131.77
133.585
133.514
133.448
133.373
133.302
133.23
133.16
133.089
133.018
132.947
132.874
132.8
132.725
132.648
132.571
132.493
132.416
132.337
132.259
132.18
132.101
132.023
131.945
131.868
131.792
133.495
133.436
133.379
133.314
133.249
133.184
133.119
133.053
132.986
132.919
132.85
132.779
132.707
132.634
132.56
132.486
132.411
132.336
132.261
132.185
132.109
132.034
131.959
131.885
131.813
133.409
133.36
133.311
133.254
133.196
133.137
133.077
133.016
132.954
132.89
132.825
132.758
132.69
132.62
132.549
132.478
132.406
132.334
132.262
132.189
132.116
132.043
131.972
131.901
131.831
133.327
133.287
133.246
133.195
133.144
133.09
133.035
132.979
132.921
132.862
132.8
132.737
132.671
132.605
132.537
132.469
132.4
132.331
132.262
132.192
132.122
132.052
131.984
131.915
131.849
133.251
133.218
133.184
133.139
133.094
133.045
132.995
132.943
132.889
132.833
132.775
132.715
132.653
132.59
132.525
132.46
132.394
132.328
132.261
132.194
132.127
132.06
131.994
131.929
131.865
133.182
133.155
133.125
133.086
133.046
133.001
132.956
132.908
132.858
132.805
132.751
132.694
132.635
132.575
132.513
132.45
132.387
132.324
132.26
132.195
132.131
132.066
132.003
131.941
131.879
133.12
133.097
133.071
133.036
133.001
132.96
132.919
132.874
132.828
132.778
132.727
132.673
132.617
132.56
132.501
132.441
132.38
132.319
132.258
132.196
132.134
132.072
132.011
131.952
131.893
133.064
133.044
133.022
132.991
132.958
132.922
132.884
132.842
132.799
132.753
132.704
132.653
132.6
132.545
132.488
132.431
132.373
132.315
132.256
132.196
132.136
132.077
132.019
131.961
131.905
133.013
132.996
132.976
132.949
132.92
132.886
132.851
132.813
132.772
132.728
132.682
132.633
132.583
132.53
132.476
132.422
132.366
132.31
132.253
132.196
132.138
132.082
132.025
131.97
131.915
132.968
132.953
132.935
132.91
132.884
132.853
132.821
132.785
132.747
132.705
132.661
132.615
132.567
132.516
132.465
132.412
132.359
132.305
132.25
132.195
132.14
132.085
132.031
131.978
131.925
132.928
132.914
132.899
132.876
132.852
132.824
132.793
132.76
132.723
132.684
132.642
132.598
132.552
132.503
132.454
132.403
132.352
132.3
132.247
132.194
132.141
132.088
132.036
131.985
131.934
132.893
132.88
132.867
132.846
132.824
132.797
132.769
132.737
132.702
132.665
132.625
132.582
132.538
132.491
132.444
132.395
132.345
132.295
132.244
132.193
132.142
132.091
132.041
131.991
131.942
132.862
132.851
132.839
132.819
132.799
132.774
132.747
132.717
132.684
132.648
132.609
132.568
132.525
132.481
132.435
132.387
132.34
132.291
132.242
132.192
132.143
132.094
132.045
131.997
131.949
132.835
132.825
132.815
132.796
132.777
132.754
132.728
132.699
132.667
132.632
132.595
132.556
132.514
132.471
132.426
132.381
132.334
132.287
132.24
132.192
132.144
132.096
132.049
132.002
131.956
132.813
132.804
132.794
132.777
132.759
132.736
132.711
132.683
132.652
132.619
132.583
132.544
132.504
132.462
132.419
132.375
132.33
132.284
132.238
132.191
132.144
132.098
132.052
132.007
131.962
132.794
132.786
132.777
132.76
132.743
132.72
132.696
132.669
132.639
132.606
132.571
132.534
132.495
132.454
132.412
132.369
132.325
132.281
132.236
132.19
132.145
132.1
132.055
132.011
131.967
132.78
132.771
132.763
132.746
132.729
132.707
132.682
132.656
132.626
132.594
132.56
132.523
132.485
132.446
132.405
132.363
132.32
132.277
132.233
132.189
132.145
132.101
132.057
132.014
131.97
132.77
132.76
132.752
132.734
132.716
132.694
132.67
132.643
132.614
132.583
132.549
132.514
132.477
132.438
132.398
132.357
132.316
132.273
132.23
132.187
132.144
132.101
132.058
132.015
131.973
132.764
132.753
132.744
132.725
132.707
132.684
132.659
132.632
132.604
132.573
132.54
132.505
132.469
132.431
132.392
132.352
132.311
132.27
132.228
132.185
132.143
132.1
132.058
132.016
131.974
132.761
132.749
132.741
132.72
132.7
132.676
132.651
132.624
132.595
132.564
132.531
132.497
132.461
132.425
132.386
132.347
132.307
132.266
132.225
132.183
132.141
132.099
132.058
132.017
131.975
132.766
132.75
132.742
132.72
132.697
132.672
132.645
132.617
132.588
132.557
132.525
132.491
132.456
132.42
132.382
132.343
132.304
132.264
132.223
132.181
132.14
132.099
132.058
132.016
131.975
132.803
132.768
132.751
132.724
132.697
132.67
132.642
132.614
132.584
132.553
132.521
132.487
132.453
132.416
132.379
132.341
132.302
132.262
132.221
132.18
132.139
132.098
132.057
132.016
131.975
132.879
132.799
132.757
132.726
132.697
132.669
132.641
132.612
132.583
132.552
132.52
132.486
132.451
132.415
132.378
132.34
132.301
132.261
132.221
132.18
132.139
132.098
132.057
132.016
131.975
131.678
131.672
131.664
131.655
131.646
131.638
131.629
131.618
131.603
131.582
131.559
131.536
131.518
131.505
131.499
131.494
131.489
131.478
131.457
131.426
131.39
131.359
131.345
131.35
131.357
131.69
131.682
131.674
131.665
131.657
131.648
131.637
131.622
131.6
131.571
131.54
131.51
131.486
131.471
131.462
131.458
131.455
131.447
131.43
131.403
131.368
131.34
131.328
131.335
131.348
131.711
131.703
131.693
131.682
131.67
131.654
131.633
131.604
131.568
131.526
131.482
131.443
131.413
131.393
131.381
131.376
131.377
131.379
131.376
131.365
131.345
131.324
131.317
131.323
131.334
131.736
131.728
131.716
131.701
131.682
131.655
131.619
131.572
131.516
131.455
131.392
131.337
131.298
131.275
131.264
131.262
131.272
131.285
131.3
131.313
131.318
131.317
131.317
131.319
131.324
131.758
131.75
131.737
131.719
131.693
131.658
131.608
131.542
131.462
131.375
131.291
131.22
131.172
131.15
131.144
131.15
131.166
131.191
131.22
131.251
131.279
131.302
131.316
131.32
131.318
131.778
131.771
131.755
131.735
131.706
131.665
131.605
131.52
131.416
131.304
131.198
131.114
131.061
131.038
131.037
131.048
131.072
131.104
131.144
131.187
131.23
131.27
131.302
131.319
131.317
131.799
131.795
131.779
131.755
131.723
131.677
131.607
131.507
131.382
131.247
131.122
131.026
130.968
130.941
130.939
130.954
130.982
131.022
131.07
131.122
131.175
131.225
131.269
131.304
131.312
131.815
131.818
131.811
131.786
131.748
131.696
131.617
131.503
131.361
131.207
131.066
130.957
130.891
130.86
130.855
130.872
130.904
130.946
130.999
131.057
131.116
131.173
131.225
131.268
131.287
131.819
131.83
131.837
131.82
131.778
131.719
131.634
131.511
131.357
131.191
131.036
130.916
130.841
130.806
130.797
130.814
130.847
130.886
130.938
130.997
131.059
131.118
131.172
131.217
131.24
131.805
131.819
131.83
131.82
131.784
131.728
131.647
131.531
131.38
131.209
131.043
130.911
130.827
130.788
130.781
130.791
130.821
130.854
130.898
130.951
131.009
131.066
131.117
131.159
131.181
131.781
131.792
131.786
131.768
131.741
131.701
131.642
131.549
131.416
131.255
131.09
130.95
130.853
130.803
130.791
130.8
130.825
130.85
130.879
130.92
130.967
131.017
131.063
131.098
131.12
131.751
131.761
131.731
131.695
131.669
131.649
131.619
131.557
131.453
131.315
131.165
131.026
130.921
130.859
130.835
130.836
130.848
130.862
130.877
130.901
130.932
130.97
131.006
131.038
131.06
131.709
131.719
131.675
131.628
131.606
131.6
131.598
131.57
131.498
131.387
131.255
131.123
131.011
130.934
130.892
130.877
130.876
130.879
130.883
130.892
130.907
130.929
130.954
130.979
131.001
131.638
131.648
131.61
131.573
131.567
131.583
131.605
131.607
131.564
131.476
131.357
131.227
131.107
131.013
130.951
130.917
130.903
130.897
130.893
130.891
130.894
130.902
130.913
130.929
130.946
131.505
131.514
131.51
131.522
131.557
131.605
131.649
131.676
131.656
131.583
131.471
131.338
131.209
131.1
131.019
130.965
130.933
130.915
130.905
130.898
130.894
130.895
130.898
130.903
130.914
131.278
131.291
131.349
131.443
131.557
131.656
131.732
131.774
131.769
131.707
131.597
131.457
131.315
131.19
131.09
131.015
130.963
130.931
130.917
130.91
130.907
130.911
130.916
130.918
130.926
130.992
131.027
131.15
131.333
131.531
131.698
131.807
131.87
131.885
131.835
131.723
131.575
131.417
131.273
131.153
131.056
130.987
130.945
130.929
130.928
130.936
130.952
130.97
130.982
130.992
130.747
130.833
130.992
131.236
131.49
131.695
131.838
131.928
131.968
131.939
131.835
131.682
131.51
131.344
131.201
131.087
131.004
130.957
130.944
130.953
130.981
131.018
131.058
131.088
131.109
130.58
130.687
130.883
131.166
131.446
131.668
131.829
131.939
131.999
131.993
131.912
131.762
131.58
131.396
131.231
131.1
131.01
130.963
130.956
130.984
131.035
131.101
131.168
131.222
131.255
130.423
130.621
130.926
131.218
131.464
131.658
131.8
131.903
131.969
131.988
131.936
131.806
131.623
131.426
131.243
131.098
131
130.954
130.959
131.005
131.084
131.182
131.282
131.367
131.42
131.463
131.169
131.313
131.478
131.616
131.729
131.814
131.876
131.924
131.948
131.912
131.796
131.616
131.411
131.218
131.065
130.965
130.926
130.943
131.014
131.121
131.251
131.385
131.505
131.583
132.312
131.835
131.709
131.696
131.717
131.753
131.785
131.805
131.817
131.815
131.775
131.674
131.512
131.319
131.133
130.984
130.889
130.859
130.896
130.987
131.125
131.289
131.459
131.611
131.713
132.451
132.061
131.863
131.773
131.732
131.719
131.713
131.701
131.681
131.648
131.588
131.482
131.331
131.15
130.973
130.829
130.738
130.714
130.758
130.871
131.033
131.232
131.444
131.64
131.762
132.448
132.163
131.956
131.825
131.741
131.684
131.639
131.593
131.54
131.476
131.389
131.269
131.113
130.932
130.754
130.603
130.503
130.468
130.508
130.616
130.792
131.017
131.27
131.515
131.695
132.385
132.164
131.975
131.829
131.719
131.628
131.547
131.467
131.381
131.286
131.174
131.033
130.863
130.669
130.473
130.298
130.166
130.094
130.093
130.173
130.326
130.547
130.813
131.09
131.279
132.302
132.122
131.951
131.803
131.675
131.56
131.45
131.338
131.22
131.092
130.949
130.784
130.587
130.367
130.135
129.911
129.715
129.566
129.483
129.472
129.546
129.697
129.914
130.166
130.402
132.209
132.053
131.897
131.751
131.614
131.483
131.351
131.213
131.065
130.905
130.731
130.53
130.302
130.041
129.755
129.455
129.159
128.884
128.645
128.467
128.349
128.295
128.283
128.302
128.206
132.113
131.973
131.829
131.685
131.542
131.397
131.244
131.08
130.904
130.716
130.509
130.282
130.016
129.707
129.351
128.951
128.517
128.057
127.587
127.111
126.634
126.149
125.599
125.044
124.231
132.016
131.887
131.749
131.605
131.455
131.298
131.13
130.95
130.757
130.549
130.319
130.052
129.739
129.363
128.915
128.389
127.782
127.087
126.288
125.379
124.295
122.985
121.138
118.772
113.834
131.916
131.794
131.659
131.515
131.363
131.201
131.03
130.845
130.64
130.408
130.138
129.819
129.43
128.958
128.384
127.696
126.875
125.896
124.703
123.214
121.261
118.707
114.577
109.934
92.7647
131.813
131.694
131.562
131.419
131.266
131.102
130.923
130.724
130.495
130.223
129.899
129.498
129.01
128.411
127.683
126.803
125.737
124.432
122.779
120.625
117.541
113.117
104.264
89.4074
33.4476
131.704
131.587
131.455
131.31
131.151
130.975
130.777
130.546
130.274
129.946
129.547
129.064
128.473
127.754
126.88
125.812
124.497
122.851
120.729
117.896
113.827
107.826
97.484
80.67
52.5922
131.589
131.47
131.335
131.183
131.01
130.814
130.587
130.32
130.003
129.622
129.162
128.601
127.921
127.093
126.078
124.832
123.282
121.325
118.79
115.422
110.777
104.205
94.8078
80.886
64.2508
131.468
131.345
131.203
131.039
130.85
130.633
130.38
130.081
129.724
129.295
128.775
128.147
127.382
126.45
125.307
123.897
122.137
119.911
117.044
113.274
108.231
101.376
92.0709
79.1556
62.7392
131.343
131.213
131.062
130.886
130.682
130.444
130.165
129.834
129.44
128.965
128.395
127.702
126.863
125.839
124.584
123.032
121.095
118.646
115.505
111.421
106.045
98.9057
89.4526
76.942
61.2322
131.218
131.08
130.917
130.728
130.507
130.249
129.946
129.586
129.158
128.645
128.027
127.283
126.38
125.281
123.933
122.266
120.186
117.56
114.205
109.866
104.215
96.8171
87.197
74.8067
59.5159
131.094
130.947
130.773
130.57
130.334
130.057
129.731
129.346
128.889
128.343
127.689
126.902
125.95
124.792
123.374
121.622
119.436
116.679
113.16
108.626
102.733
95.0426
85.0722
72.2252
56.4448
130.976
130.819
130.634
130.418
130.166
129.872
129.528
129.121
128.641
128.07
127.387
126.57
125.584
124.387
122.923
121.117
118.864
116.023
112.397
107.718
101.622
93.6252
83.1789
69.3893
52.3156
130.867
130.699
130.503
130.275
130.01
129.702
129.341
128.918
128.421
127.831
127.132
126.295
125.29
124.075
122.592
120.765
118.489
115.618
111.936
107.174
100.876
92.5565
81.4295
66.2069
47.1103
130.768
130.59
130.384
130.145
129.869
129.549
129.176
128.742
128.232
127.633
126.925
126.083
125.076
123.863
122.389
120.58
118.331
115.495
111.844
107.084
100.614
91.9263
79.3068
61.7655
37.9421
130.683
130.495
130.279
130.031
129.746
129.417
129.036
128.594
128.08
127.479
126.772
125.936
124.943
123.754
122.318
120.566
118.401
115.686
112.2
107.646
101.357
92.6913
78.5502
58.4705
21.1644
130.612
130.415
130.191
129.935
129.643
129.308
128.923
128.479
127.965
127.369
126.672
125.855
124.89
123.745
122.373
120.715
118.688
116.175
113
108.91
103.416
95.9231
83.8046
66.1597
17.1964
130.555
130.351
130.12
129.858
129.561
129.223
128.837
128.396
127.888
127.303
126.625
125.835
124.912
123.826
122.54
121.004
119.154
116.9
114.119
110.639
106.197
100.471
92.6817
83.202
63.9815
130.513
130.302
130.066
129.8
129.501
129.163
128.78
128.344
127.848
127.279
126.626
125.873
125.001
123.986
122.798
121.402
119.748
117.777
115.41
112.55
109.073
104.842
99.6616
93.5408
85.8999
130.486
130.27
130.029
129.761
129.462
129.126
128.749
128.323
127.841
127.294
126.672
125.96
125.145
124.208
123.127
121.876
120.422
118.729
116.754
114.454
111.792
108.762
105.416
102.019
99.134
130.472
130.252
130.009
129.741
129.443
129.112
128.743
128.329
127.866
127.344
126.755
126.09
125.335
124.479
123.506
122.397
121.135
119.698
118.069
116.237
114.209
112.024
109.778
107.7
106.154
130.47
130.247
130.004
129.737
129.443
129.119
128.76
128.361
127.917
127.423
126.87
126.252
125.56
124.784
123.914
122.941
121.853
120.642
119.307
117.852
116.306
114.72
113.194
111.896
111.054
130.479
130.255
130.013
129.749
129.46
129.144
128.797
128.415
127.993
127.527
127.011
126.441
125.809
125.11
124.338
123.487
122.554
121.538
120.444
119.288
118.099
116.928
115.855
114.992
114.464
130.497
130.274
130.034
129.774
129.492
129.186
128.851
128.487
128.087
127.65
127.172
126.647
126.074
125.447
124.764
124.023
123.225
122.372
121.475
120.55