/*--------------------------------*- C++ -*----------------------------------*\
  =========                 |
  \\      /  F ield         | OpenFOAM: The Open Source CFD Toolbox
   \\    /   O peration     | Website:  https://openfoam.org
    \\  /    A nd           | Version:  13
     \\/     M anipulation  |
\*---------------------------------------------------------------------------*/
FoamFile
{
    format      ascii;
    class       surfaceScalarField;
    location    "14";
    object      phi;
}
// * * * * * * * * * * * * * * * * * * * * * * * * * * * * * * * * * * * * * //

dimensions      [0 3 -1 0 0 0 0];

internalField   nonuniform List<scalar> 
12590
(
-1.37505e-08
6.00478e-09
-3.42119e-08
1.24266e-08
-5.92329e-08
1.87568e-08
-9.19216e-08
2.65138e-08
-1.32985e-07
3.67285e-08
-1.86119e-07
4.93763e-08
-2.52843e-07
6.37534e-08
-3.31014e-07
7.64284e-08
-4.14331e-07
8.1484e-08
-4.87715e-07
7.2036e-08
-5.36632e-07
4.77572e-08
-5.53812e-07
1.48148e-08
-5.29727e-07
-2.48718e-08
-4.73684e-07
-5.93067e-08
-3.92363e-07
-8.19899e-08
-2.9988e-07
-9.53514e-08
-2.04567e-07
-9.59856e-08
-1.25621e-07
-8.09251e-08
-7.31209e-08
-5.36694e-08
-4.92079e-08
-2.62517e-08
-4.11517e-08
-1.0174e-08
-3.84216e-08
-7.28434e-09
-2.80115e-08
-1.26053e-08
-1.21612e-08
-2.10496e-08
-1.28555e-08
-3.46479e-08
3.36974e-08
-7.81635e-08
4.98156e-08
-1.25518e-07
6.12493e-08
-1.77581e-07
7.44686e-08
-2.3537e-07
9.09811e-08
-2.99532e-07
1.10929e-07
-3.7045e-07
1.32311e-07
-4.44867e-07
1.4941e-07
-5.15826e-07
1.50854e-07
-5.70538e-07
1.25368e-07
-5.95775e-07
7.16425e-08
-5.85117e-07
1.88429e-09
-5.40251e-07
-7.14156e-08
-4.66171e-07
-1.3611e-07
-3.6642e-07
-1.83321e-07
-2.62915e-07
-2.01095e-07
-1.75536e-07
-1.84722e-07
-1.13224e-07
-1.4513e-07
-8.09226e-08
-8.77212e-08
-7.17833e-08
-3.80535e-08
-7.13507e-08
-1.36189e-08
-6.61234e-08
-1.38186e-08
-5.14237e-08
-3.39221e-08
-1.92505e-08
-5.42761e-08
-3.26254e-08
-4.65325e-08
7.4348e-08
-9.66077e-08
9.48425e-08
-1.43447e-07
1.03838e-07
-1.89286e-07
1.16264e-07
-2.36384e-07
1.34857e-07
-2.87087e-07
1.58683e-07
-3.41001e-07
1.84012e-07
-3.93824e-07
2.00177e-07
-4.38878e-07
1.94308e-07
-4.65386e-07
1.4986e-07
-4.56723e-07
6.10954e-08
-4.2165e-07
-3.63528e-08
-3.59016e-07
-1.36681e-07
-2.84871e-07
-2.13355e-07
-2.10118e-07
-2.60282e-07
-1.47696e-07
-2.65922e-07
-1.06517e-07
-2.2762e-07
-9.64404e-08
-1.57305e-07
-1.08424e-07
-7.78925e-08
-1.22169e-07
-2.69611e-08
-1.20223e-07
-1.72814e-08
-1.08921e-07
-2.91661e-08
-7.15098e-08
-6.88141e-08
-2.35357e-08
-1.04503e-07
-5.52982e-08
-4.54933e-08
1.15154e-07
-9.44164e-08
1.3944e-07
-1.37501e-07
1.42912e-07
-1.73271e-07
1.48482e-07
-2.04003e-07
1.61715e-07
-2.28895e-07
1.80737e-07
-2.49835e-07
2.01856e-07
-2.68564e-07
2.16689e-07
-2.83421e-07
2.06619e-07
-2.87308e-07
1.51329e-07
-2.57224e-07
2.75442e-08
-2.30757e-07
-6.85832e-08
-1.77833e-07
-1.93098e-07
-1.237e-07
-2.71087e-07
-8.84037e-08
-2.97751e-07
-8.53036e-08
-2.71398e-07
-1.13856e-07
-2.00605e-07
-1.52793e-07
-1.20422e-07
-1.83687e-07
-4.8418e-08
-1.85392e-07
-2.6623e-08
-1.69462e-07
-3.40716e-08
-1.31115e-07
-6.49524e-08
-7.39261e-08
-1.29558e-07
-1.61751e-08
-1.58708e-07
-7.07862e-08
-3.45977e-08
1.46437e-07
-7.90646e-08
1.80364e-07
-1.16546e-07
1.76942e-07
-1.43608e-07
1.71459e-07
-1.58884e-07
1.73424e-07
-1.62736e-07
1.80982e-07
-1.60107e-07
1.95978e-07
-1.54846e-07
2.08504e-07
-1.52618e-07
2.0157e-07
-1.6134e-07
1.56204e-07
-1.76762e-07
3.62022e-08
-1.31437e-07
-1.23121e-07
-8.43456e-08
-2.43356e-07
-6.52893e-08
-2.92733e-07
-8.82373e-08
-2.7626e-07
-1.52625e-07
-2.0874e-07
-2.23006e-07
-1.31263e-07
-2.7134e-07
-7.31805e-08
-2.71092e-07
-4.93833e-08
-2.37769e-07
-6.04903e-08
-1.87933e-07
-8.36865e-08
-1.15375e-07
-1.39538e-07
-4.41507e-08
-1.95919e-07
-7.50433e-09
-1.94632e-07
-7.65437e-08
-2.31245e-08
1.67126e-07
-3.135e-08
1.85337e-07
7.77397e-10
1.41914e-07
5.60061e-08
1.13652e-07
1.04297e-07
1.22987e-07
1.2346e-07
1.59935e-07
1.11249e-07
2.06455e-07
8.47514e-08
2.33403e-07
6.00215e-08
2.24427e-07
4.51623e-08
1.68859e-07
2.23701e-08
5.5863e-08
-8.43356e-09
-9.60237e-08
-4.36796e-08
-2.10353e-07
-1.15924e-07
-2.2247e-07
-2.16189e-07
-1.76976e-07
-3.11368e-07
-1.14623e-07
-3.52763e-07
-9.02017e-08
-3.48299e-07
-7.83363e-08
-3.04913e-07
-9.28836e-08
-2.45757e-07
-1.19846e-07
-1.62899e-07
-1.66532e-07
-8.11612e-08
-2.18829e-07
-3.61262e-08
-2.42515e-07
-1.27894e-08
-2.12753e-07
-8.75329e-08
2.92684e-08
1.35104e-07
1.63105e-07
4.97293e-08
3.27189e-07
-2.3616e-08
4.52543e-07
-1.30782e-08
5.09244e-07
6.49003e-08
4.95964e-07
1.71928e-07
4.31646e-07
2.69466e-07
3.35508e-07
3.28161e-07
2.3404e-07
3.24468e-07
1.44088e-07
2.5685e-07
6.14406e-08
1.35615e-07
-2.16452e-08
-1.67969e-08
-1.34944e-07
-9.98041e-08
-2.71221e-07
-8.787e-08
-3.76302e-07
-7.25118e-08
-4.19646e-07
-7.19041e-08
-4.2094e-07
-8.91126e-08
-3.89952e-07
-1.09874e-07
-3.32566e-07
-1.50474e-07
-2.52273e-07
-2.00279e-07
-1.69443e-07
-2.49036e-07
-1.14318e-07
-2.74728e-07
-7.77782e-08
-2.74397e-07
-4.20863e-08
-2.45145e-07
-1.27248e-07
1.37792e-07
-4.65626e-09
3.49878e-07
-1.6367e-07
4.99127e-07
-1.73792e-07
5.55335e-07
-7.05383e-08
5.38742e-07
7.99153e-08
4.89653e-07
2.19389e-07
4.07764e-07
3.49833e-07
3.02886e-07
4.31463e-07
1.93881e-07
4.31758e-07
9.49069e-08
3.53445e-07
5.98444e-10
2.27126e-07
-1.24098e-07
1.04197e-07
-2.81502e-07
5.55285e-08
-4.05671e-07
3.49409e-08
-4.77849e-07
-9.27992e-10
-5.05293e-07
-4.5278e-08
-4.99438e-07
-9.54164e-08
-4.58096e-07
-1.52045e-07
-3.93817e-07
-2.15032e-07
-3.22413e-07
-2.71897e-07
-2.60933e-07
-3.10246e-07
-2.06349e-07
-3.27742e-07
-1.47169e-07
-3.33064e-07
-7.56177e-08
-3.11925e-07
-2.00649e-07
1.91907e-07
-1.97844e-07
3.25238e-07
-2.97765e-07
3.72681e-07
-2.21992e-07
3.36102e-07
-3.63577e-08
2.9161e-07
1.21925e-07
2.36721e-07
2.7183e-07
1.58414e-07
4.2629e-07
6.73343e-08
5.20375e-07
-3.12344e-08
5.28559e-07
-1.24149e-07
4.4436e-07
-2.26395e-07
3.27497e-07
-3.5188e-07
2.27897e-07
-4.71074e-07
1.73558e-07
-5.55649e-07
1.18394e-07
-6.02745e-07
4.54019e-08
-6.18257e-07
-3.07986e-08
-6.04101e-07
-1.10381e-07
-5.66535e-07
-1.90517e-07
-5.15379e-07
-2.66772e-07
-4.5611e-07
-3.31343e-07
-3.86818e-07
-3.79382e-07
-3.03308e-07
-4.11342e-07
-2.04054e-07
-4.29954e-07
-9.68914e-08
-4.15244e-07
-2.96059e-07
1.28331e-07
-3.26389e-07
1.56315e-07
-3.26358e-07
1.19693e-07
-1.87215e-07
5.75322e-08
2.21832e-08
-7.43696e-09
1.83245e-07
-9.31774e-08
3.55375e-07
-1.80782e-07
5.12274e-07
-2.52698e-07
5.90802e-07
-3.19652e-07
5.94099e-07
-3.83543e-07
5.06877e-07
-4.6507e-07
4.07717e-07
-5.67124e-07
3.28772e-07
-6.56207e-07
2.61782e-07
-7.15224e-07
1.76496e-07
-7.47308e-07
7.67081e-08
-7.54914e-07
-2.4265e-08
-7.39878e-07
-1.26282e-07
-7.05001e-07
-2.2633e-07
-6.51369e-07
-3.20934e-07
-5.79161e-07
-4.0373e-07
-4.88203e-07
-4.70475e-07
-3.77737e-07
-5.21289e-07
-2.51368e-07
-5.54853e-07
-1.20649e-07
-5.43865e-07
-4.15183e-07
2.33588e-08
-3.49872e-07
-2.15809e-08
-2.81613e-07
-1.09568e-07
-1.00688e-07
-1.91759e-07
1.01988e-07
-2.83943e-07
2.73749e-07
-3.76138e-07
4.4604e-07
-4.40789e-07
5.75665e-07
-4.79132e-07
6.278e-07
-5.08659e-07
6.22473e-07
-5.60465e-07
5.57429e-07
-6.44137e-07
4.90339e-07
-7.40656e-07
4.24388e-07
-8.19724e-07
3.4016e-07
-8.72098e-07
2.28105e-07
-8.94594e-07
9.84886e-08
-8.84891e-07
-3.48991e-08
-8.47173e-07
-1.64789e-07
-7.88214e-07
-2.86081e-07
-7.15083e-07
-3.94496e-07
-6.31073e-07
-4.88099e-07
-5.34387e-07
-5.67016e-07
-4.20128e-07
-6.35488e-07
-2.86911e-07
-6.87937e-07
-1.43845e-07
-6.84215e-07
-5.58571e-07
-6.09802e-08
-2.88662e-07
-1.611e-07
-1.82248e-07
-2.72424e-07
9.32678e-09
-3.66292e-07
1.9412e-07
-4.55433e-07
3.61538e-07
-5.21005e-07
5.10272e-07
-5.61262e-07
6.14821e-07
-5.989e-07
6.64145e-07
-6.50019e-07
6.72454e-07
-7.38034e-07
6.44357e-07
-8.44519e-07
5.9591e-07
-9.35795e-07
5.14817e-07
-9.91483e-07
3.95094e-07
-1.00472e-06
2.4059e-07
-9.74751e-07
6.77385e-08
-9.13141e-07
-9.74315e-08
-8.34726e-07
-2.43994e-07
-7.47976e-07
-3.73553e-07
-6.58862e-07
-4.84302e-07
-5.71323e-07
-5.75743e-07
-4.85051e-07
-6.53891e-07
-3.91119e-07
-7.29611e-07
-2.78464e-07
-7.99312e-07
-1.47557e-07
-8.14978e-07
-7.05726e-07
-1.05874e-07
-1.83099e-07
-2.36223e-07
-5.26051e-08
-3.5836e-07
1.30128e-07
-4.68217e-07
3.02702e-07
-5.70426e-07
4.62646e-07
-6.61449e-07
6.00217e-07
-7.52155e-07
7.04427e-07
-8.56083e-07
7.67005e-07
-9.68049e-07
7.83423e-07
-1.07193e-06
7.47194e-07
-1.13989e-06
6.62856e-07
-1.15328e-06
5.27227e-07
-1.10749e-06
3.48324e-07
-1.0163e-06
1.4833e-07
-9.03257e-07
-4.63668e-08
-7.89007e-07
-2.12823e-07
-6.79534e-07
-3.54329e-07
-5.77473e-07
-4.76688e-07
-4.84127e-07
-5.78148e-07
-4.01371e-07
-6.59347e-07
-3.31555e-07
-7.239e-07
-2.72857e-07
-7.88239e-07
-2.08425e-07
-8.64709e-07
-1.18143e-07
-9.04421e-07
-8.24181e-07
-1.46026e-07
-3.80652e-08
-3.15547e-07
1.15956e-07
-4.72257e-07
2.85921e-07
-6.22359e-07
4.51999e-07
-7.69886e-07
6.09378e-07
-9.16292e-07
7.45705e-07
-1.0567e-06
8.44043e-07
-1.17411e-06
8.83306e-07
-1.24615e-06
8.54382e-07
-1.265e-06
7.64837e-07
-1.2283e-06
6.24966e-07
-1.14071e-06
4.38315e-07
-1.01357e-06
2.19717e-07
-8.65892e-07
-8.79229e-10
-7.23896e-07
-1.89931e-07
-5.92641e-07
-3.45362e-07
-4.70838e-07
-4.77353e-07
-3.63941e-07
-5.84619e-07
-2.73928e-07
-6.69159e-07
-1.99394e-07
-7.34626e-07
-1.412e-07
-7.82609e-07
-1.07719e-07
-8.22598e-07
-9.36111e-08
-8.78126e-07
-6.59219e-08
-9.33058e-07
-8.90456e-07
-1.97004e-07
1.58553e-07
-4.00137e-07
3.18804e-07
-5.89447e-07
4.74955e-07
-7.71379e-07
6.33673e-07
-9.45396e-07
7.82894e-07
-1.10069e-06
9.00412e-07
-1.21657e-06
9.58816e-07
-1.2767e-06
9.42407e-07
-1.28033e-06
8.56608e-07
-1.23314e-06
7.16308e-07
-1.13368e-06
5.24005e-07
-9.92832e-07
2.95682e-07
-8.32236e-07
5.72918e-08
-6.76466e-07
-1.58799e-07
-5.30817e-07
-3.37153e-07
-3.92044e-07
-4.85678e-07
-2.66317e-07
-6.04287e-07
-1.59244e-07
-6.92876e-07
-7.3738e-08
-7.55559e-07
-1.0453e-08
-7.986e-07
3.28441e-08
-8.26581e-07
5.39183e-08
-8.4331e-07
4.01435e-08
-8.65373e-07
1.02194e-08
-9.03856e-07
-8.80684e-07
-2.29494e-07
3.86848e-07
-4.43091e-07
5.31812e-07
-6.43054e-07
6.748e-07
-8.32871e-07
8.23018e-07
-1.00481e-06
9.539e-07
-1.14107e-06
1.03587e-06
-1.2209e-06
1.03742e-06
-1.23433e-06
9.54732e-07
-1.185e-06
8.05508e-07
-1.08798e-06
6.18479e-07
-9.57146e-07
3.91008e-07
-7.99551e-07
1.3724e-07
-6.32126e-07
-1.13059e-07
-4.67894e-07
-3.24679e-07
-3.09643e-07
-4.97314e-07
-1.64043e-07
-6.32689e-07
-3.86727e-08
-7.3068e-07
6.30677e-08
-7.95573e-07
1.39802e-07
-8.32689e-07
1.909e-07
-8.50246e-07
2.16269e-07
-8.5194e-07
2.1958e-07
-8.46817e-07
1.82394e-07
-8.28606e-07
9.36395e-08
-8.15925e-07
-7.87318e-07
-2.24103e-07
6.091e-07
-4.26984e-07
7.33371e-07
-6.18311e-07
8.64286e-07
-7.96298e-07
9.98571e-07
-9.47293e-07
1.1044e-06
-1.05557e-06
1.14119e-06
-1.09955e-06
1.0807e-06
-1.0743e-06
9.25991e-07
-1.00019e-06
7.31389e-07
-8.96696e-07
5.1106e-07
-7.59153e-07
2.53631e-07
-5.93581e-07
-3.40836e-08
-4.1364e-07
-2.94252e-07
-2.36064e-07
-5.04961e-07
-6.89918e-08
-6.66492e-07
7.84145e-08
-7.80684e-07
1.99897e-07
-8.5337e-07
2.97441e-07
-8.92985e-07
3.69846e-07
-9.05393e-07
4.14608e-07
-8.95084e-07
4.28119e-07
-8.65167e-07
4.05551e-07
-8.24459e-07
3.34096e-07
-7.57462e-07
2.08709e-07
-6.90861e-07
-5.80125e-07
-1.86862e-07
7.91698e-07
-3.68234e-07
9.1125e-07
-5.38415e-07
1.03095e-06
-6.91436e-07
1.1507e-06
-8.16759e-07
1.22388e-06
-9.011e-07
1.22375e-06
-9.18862e-07
1.09277e-06
-8.73814e-07
8.78639e-07
-7.98708e-07
6.48947e-07
-6.90416e-07
3.99798e-07
-5.48601e-07
1.00912e-07
-3.63994e-07
-2.21495e-07
-1.74614e-07
-4.90793e-07
9.3946e-09
-6.93318e-07
1.76776e-07
-8.35817e-07
3.21153e-07
-9.27211e-07
4.43508e-07
-9.75953e-07
5.39279e-07
-9.89365e-07
6.05977e-07
-9.72329e-07
6.40171e-07
-9.2904e-07
6.3753e-07
-8.62902e-07
5.8867e-07
-7.75848e-07
4.84696e-07
-6.53567e-07
3.12289e-07
-5.22181e-07
-2.68719e-07
-1.40726e-07
9.30796e-07
-2.92327e-07
1.06056e-06
-4.34267e-07
1.17157e-06
-5.64066e-07
1.27431e-06
-6.64744e-07
1.32251e-06
-7.24115e-07
1.27667e-06
-7.2079e-07
1.08331e-06
-6.71892e-07
8.20928e-07
-5.90956e-07
5.60394e-07
-4.78568e-07
2.73908e-07
-3.18861e-07
-6.94562e-08
-1.26327e-07
-4.30426e-07
7.09849e-08
-6.94142e-07
2.52659e-07
-8.80211e-07
4.14713e-07
-1.00179e-06
5.5496e-07
-1.06961e-06
6.70061e-07
-1.09282e-06
7.5762e-07
-1.07807e-06
8.15452e-07
-1.03076e-06
8.39939e-07
-9.54413e-07
8.26332e-07
-8.49964e-07
7.65535e-07
-7.15636e-07
6.44751e-07
-5.36393e-07
4.74517e-07
-3.52696e-07
2.0588e-07
-1.00909e-07
1.02997e-06
-2.19573e-07
1.17833e-06
-3.34358e-07
1.28349e-06
-4.3432e-07
1.37389e-06
-5.09466e-07
1.39134e-06
-5.38601e-07
1.29956e-06
-5.26405e-07
1.06426e-06
-4.72302e-07
7.57801e-07
-3.80414e-07
4.55937e-07
-2.71973e-07
1.50209e-07
-9.29092e-08
-2.74084e-07
1.16108e-07
-6.42456e-07
2.99728e-07
-8.85438e-07
4.6237e-07
-1.04792e-06
6.05164e-07
-1.14822e-06
7.27331e-07
-1.19452e-06
8.27265e-07
-1.19478e-06
9.04545e-07
-1.15681e-06
9.58321e-07
-1.08583e-06
9.86674e-07
-9.83746e-07
9.84476e-07
-8.48768e-07
9.39388e-07
-6.72731e-07
8.3237e-07
-4.29285e-07
5.72526e-07
-9.24874e-08
7.78851e-07
-4.97986e-08
1.08164e-06
-1.18121e-07
1.24734e-06
-1.80957e-07
1.34698e-06
-2.29954e-07
1.4181e-06
-2.55732e-07
1.41562e-06
-2.66508e-07
1.30516e-06
-2.62319e-07
1.05296e-06
-2.34009e-07
7.19792e-07
-1.76489e-07
3.88362e-07
-1.33697e-07
8.51925e-08
1.34268e-08
-4.21133e-07
1.26531e-07
-7.64963e-07
2.21193e-07
-9.82386e-07
3.08e-07
-1.13737e-06
3.90844e-07
-1.23333e-06
4.69287e-07
-1.2748e-06
5.43568e-07
-1.27052e-06
6.15046e-07
-1.22949e-06
6.85758e-07
-1.15753e-06
7.57996e-07
-1.05687e-06
8.34567e-07
-9.2632e-07
9.23056e-07
-7.61604e-07
1.05038e-06
-5.56365e-07
1.29057e-06
-3.31879e-07
3.69873e-08
2.03394e-06
-2.49679e-08
1.10812e-06
-6.85328e-08
1.29235e-06
-1.07352e-07
1.38486e-06
-1.25292e-07
1.4393e-06
-1.31203e-07
1.41663e-06
-1.264e-07
1.29821e-06
-1.17404e-07
1.03927e-06
-9.28248e-08
6.91709e-07
-4.7061e-08
3.30443e-07
3.47565e-08
5.26314e-09
1.30594e-07
-5.24459e-07
1.8302e-07
-8.13002e-07
2.3191e-07
-1.03255e-06
2.90811e-07
-1.19705e-06
3.56257e-07
-1.29952e-06
4.24131e-07
-1.34335e-06
4.93683e-07
-1.34068e-06
5.66745e-07
-1.30311e-06
6.46659e-07
-1.23797e-06
7.37829e-07
-1.14851e-06
8.46462e-07
-1.03543e-06
9.83851e-07
-8.99007e-07
1.17018e-06
-7.42035e-07
1.42431e-06
-5.8533e-07
-4.04987e-07
1.86653e-06
-8.26234e-09
1.12051e-06
-3.25934e-08
1.31933e-06
-4.74925e-08
1.40391e-06
-5.05559e-08
1.43938e-06
-3.72442e-08
1.40689e-06
-1.47414e-08
1.27497e-06
1.02214e-08
1.01411e-06
3.99561e-08
6.60672e-07
8.64597e-08
2.89677e-07
1.43568e-07
-5.21199e-08
1.52735e-07
-5.24271e-07
1.49258e-07
-8.10984e-07
1.79144e-07
-1.05993e-06
2.35562e-07
-1.25224e-06
3.01443e-07
-1.36479e-06
3.69057e-07
-1.41066e-06
4.38211e-07
-1.4097e-06
5.11728e-07
-1.37663e-06
5.93737e-07
-1.32006e-06
6.8928e-07
-1.24424e-06
8.05013e-07
-1.15116e-06
9.49246e-07
-1.04308e-06
1.13153e-06
-9.24387e-07
1.35351e-06
-8.06398e-07
-6.97539e-07
1.64502e-06
2.21625e-09
1.12266e-06
-8.19781e-09
1.33393e-06
-1.12194e-08
1.40838e-06
-6.8423e-10
1.43533e-06
2.07059e-08
1.38621e-06
5.41274e-08
1.24427e-06
8.61777e-08
9.86454e-07
1.14992e-07
6.39884e-07
1.40115e-07
2.72543e-07
1.35882e-07
-2.50371e-08
8.1797e-08
-4.67064e-07
7.64235e-08
-7.96304e-07
1.25546e-07
-1.10566e-06
1.9874e-07
-1.32302e-06
2.74629e-07
-1.43912e-06
3.48942e-07
-1.48394e-06
4.23212e-07
-1.48328e-06
5.00042e-07
-1.45302e-06
5.82611e-07
-1.40239e-06
6.75162e-07
-1.33659e-06
7.82871e-07
-1.25886e-06
9.11712e-07
-1.17185e-06
1.06761e-06
-1.07918e-06
1.24891e-06
-9.88877e-07
-9.06249e-07
1.45795e-06
8.05837e-09
1.12071e-06
2.96054e-09
1.34404e-06
7.90326e-09
1.40996e-06
2.09811e-08
1.4243e-06
4.65045e-08
1.36739e-06
7.75016e-08
1.22008e-06
1.02482e-07
9.70144e-07
1.13707e-07
6.40212e-07
1.13432e-07
2.99866e-07
4.29375e-08
8.11231e-08
-5.39024e-09
-3.98785e-07
2.04027e-08
-8.16539e-07
9.53208e-08
-1.17456e-06
1.82883e-07
-1.40699e-06
2.70361e-07
-1.52429e-06
3.56565e-07
-1.56854e-06
4.42298e-07
-1.56784e-06
5.28386e-07
-1.53825e-06
6.16288e-07
-1.48964e-06
7.08526e-07
-1.4284e-06
8.08822e-07
-1.35864e-06
9.21227e-07
-1.28359e-06
1.04812e-06
-1.20666e-06
1.19118e-06
-1.13049e-06
-1.06105e-06
1.34524e-06
8.85133e-09
1.11923e-06
5.97179e-09
1.35352e-06
1.04575e-08
1.41025e-06
2.47487e-08
1.41897e-06
4.44125e-08
1.35485e-06
6.47136e-08
1.2097e-06
7.17639e-08
9.76033e-07
5.68408e-08
6.76532e-07
2.0859e-08
3.76071e-07
-3.86497e-08
2.04841e-07
-7.19935e-08
-3.49977e-07
-2.27965e-08
-8.52515e-07
6.00034e-08
-1.25132e-06
1.5722e-07
-1.50012e-06
2.57675e-07
-1.62197e-06
3.58762e-07
-1.6676e-06
4.59175e-07
-1.6667e-06
5.58189e-07
-1.63606e-06
6.56065e-07
-1.58658e-06
7.54141e-07
-1.52565e-06
8.54393e-07
-1.45828e-06
9.58935e-07
-1.38774e-06
1.07009e-06
-1.31627e-06
1.18607e-06
-1.24727e-06
-1.1805e-06
1.30642e-06
6.98268e-09
1.11955e-06
3.74363e-09
1.36347e-06
6.87068e-09
1.4156e-06
1.49253e-08
1.41816e-06
2.56212e-08
1.35479e-06
3.01084e-08
1.21835e-06
1.64211e-08
1.00737e-06
-2.60277e-08
7.42977e-07
-9.717e-08
4.85461e-07
-1.09591e-07
2.57134e-07
-1.24858e-07
-3.10042e-07
-7.76744e-08
-8.90477e-07
1.05914e-08
-1.33207e-06
1.19744e-07
-1.60457e-06
2.3456e-07
-1.73362e-06
3.50084e-07
-1.7808e-06
4.63748e-07
-1.77854e-06
5.74358e-07
-1.7452e-06
6.8195e-07
-1.69295e-06
7.87321e-07
-1.63005e-06
8.91749e-07
-1.56177e-06
9.96452e-07
-1.49143e-06
1.10131e-06
-1.42131e-06
1.2074e-06
-1.35164e-06
-1.28465e-06
1.31152e-06
4.679e-09
1.12376e-06
5.1396e-10
1.37533e-06
-1.83547e-09
1.42517e-06
-2.65575e-09
1.42894e-06
-7.6568e-09
1.37268e-06
-2.31165e-08
1.24863e-06
-5.79555e-08
1.05969e-06
-1.21834e-07
8.30055e-07
-2.00464e-07
5.92754e-07
-2.17347e-07
3.08594e-07
-2.05666e-07
-3.03902e-07
-1.39825e-07
-9.43707e-07
-3.68039e-08
-1.42756e-06
8.76624e-08
-1.72398e-06
2.17099e-07
-1.85961e-06
3.45291e-07
-1.90641e-06
4.69293e-07
-1.9005e-06
5.88081e-07
-1.86231e-06
7.02025e-07
-1.80551e-06
8.12242e-07
-1.73905e-06
9.19849e-07
-1.66843e-06
1.02566e-06
-1.59657e-06
1.1306e-06
-1.52466e-06
1.23298e-06
-1.45425e-06
-1.38377e-06
1.33324e-06
1.27627e-09
1.12874e-06
-6.83273e-09
1.38991e-06
-1.56199e-08
1.44286e-06
-2.62036e-08
1.45112e-06
-4.30133e-08
1.40004e-06
-7.13982e-08
1.29299e-06
-1.31059e-07
1.1375e-06
-2.32262e-07
9.51225e-07
-3.26749e-07
7.11678e-07
-3.35887e-07
3.48359e-07
-2.9133e-07
-3.28236e-07
-2.02182e-07
-1.02166e-06
-7.58696e-08
-1.54635e-06
6.76746e-08
-1.86232e-06
2.1263e-07
-2.00094e-06
3.52856e-07
-2.04391e-06
4.85603e-07
-2.03104e-06
6.10292e-07
-1.98517e-06
7.27939e-07
-1.92162e-06
8.40206e-07
-1.85007e-06
9.48815e-07
-1.77591e-06
1.05509e-06
-1.70172e-06
1.15911e-06
-1.62854e-06
1.26195e-06
-1.55542e-06
-1.48296e-06
1.36151e-06
-1.97331e-09
1.13859e-06
-1.14774e-08
1.40708e-06
-2.3067e-08
1.4632e-06
-3.4583e-08
1.46924e-06
-4.97589e-08
1.4323e-06
-1.00846e-07
1.35768e-06
-2.04096e-07
1.25653e-06
-3.37371e-07
1.10166e-06
-4.28917e-07
8.28213e-07
-4.27562e-07
3.7464e-07
-3.66531e-07
-3.70865e-07
-2.54228e-07
-1.12426e-06
-1.01234e-07
-1.69121e-06
6.29812e-08
-2.02117e-06
2.22981e-07
-2.15728e-06
3.74127e-07
-2.19228e-06
5.1416e-07
-2.16883e-06
6.43176e-07
-2.1123e-06
7.62923e-07
-2.03978e-06
8.75838e-07
-1.96161e-06
9.84167e-07
-1.88315e-06
1.08962e-06
-1.80637e-06
1.19374e-06
-1.73119e-06
1.29594e-06
-1.6574e-06
-1.58278e-06
1.39692e-06
-1.24921e-09
1.14407e-06
-4.06885e-09
1.41539e-06
-5.95297e-09
1.47064e-06
-4.95549e-09
1.48359e-06
-4.07199e-08
1.47506e-06
-1.32277e-07
1.4628e-06
-2.69675e-07
1.40812e-06
-4.00371e-07
1.2478e-06
-4.80769e-07
9.26563e-07
-4.68954e-07
3.9142e-07
-4.06802e-07
-4.2004e-07
-2.75715e-07
-1.2434e-06
-1.01457e-07
-1.85952e-06
8.08251e-08
-2.19881e-06
2.52843e-07
-2.32587e-06
4.11608e-07
-2.34837e-06
5.55917e-07
-2.31092e-06
6.86734e-07
-2.24123e-06
8.06664e-07
-2.15808e-06
9.18813e-07
-2.07241e-06
1.02607e-06
-1.98923e-06
1.13072e-06
-1.90991e-06
1.23391e-06
-1.83389e-06
1.33714e-06
-1.75922e-06
-1.68472e-06
1.43981e-06
1.04095e-08
1.13886e-06
2.51118e-08
1.40536e-06
3.89365e-08
1.46536e-06
1.75187e-08
1.50719e-06
-5.65342e-08
1.56251e-06
-1.79965e-07
1.5964e-06
-3.09059e-07
1.54576e-06
-4.09611e-07
1.35848e-06
-4.68186e-07
1.00462e-06
-4.40961e-07
3.81832e-07
-3.82491e-07
-4.62688e-07
-2.46353e-07
-1.37522e-06
-5.97467e-08
-2.03963e-06
1.31817e-07
-2.38616e-06
3.08945e-07
-2.50001e-06
4.6953e-07
-2.50658e-06
6.13292e-07
-2.45266e-06
7.42053e-07
-2.36822e-06
8.59233e-07
-2.27372e-06
9.68647e-07
-2.18047e-06
1.07355e-06
-2.09304e-06
1.17641e-06
-2.01187e-06
1.27915e-06
-1.93544e-06
1.38257e-06
-1.86188e-06
-1.78892e-06
1.48781e-06
3.25773e-08
1.10603e-06
6.09259e-08
1.37894e-06
5.76352e-08
1.47016e-06
3.76436e-09
1.57212e-06
-9.69636e-08
1.66572e-06
-2.01715e-07
1.70737e-06
-2.79447e-07
1.63024e-06
-3.2773e-07
1.41646e-06
-3.64393e-07
1.04957e-06
-3.05552e-07
3.4766e-07
-2.70438e-07
-4.93961e-07
-1.39078e-07
-1.49714e-06
3.78149e-08
-2.21349e-06
2.23968e-07
-2.56972e-06
3.96079e-07
-2.66998e-06
5.50683e-07
-2.65929e-06
6.878e-07
-2.58804e-06
8.09763e-07
-2.48859e-06
9.20669e-07
-2.38318e-06
1.02477e-06
-2.28335e-06
1.1256e-06
-2.19278e-06
1.2256e-06
-2.11091e-06
1.32651e-06
-2.0355e-06
1.4297e-06
-1.96409e-06
-1.89443e-06
1.53624e-06
4.9081e-08
1.05731e-06
6.87934e-08
1.35986e-06
3.87849e-08
1.50477e-06
-3.31157e-08
1.64079e-06
-1.06597e-07
1.74613e-06
-1.5961e-07
1.76195e-06
-1.81686e-07
1.65554e-06
-1.80226e-07
1.41569e-06
-1.44483e-07
1.0277e-06
-5.03384e-08
2.56332e-07
-3.49606e-08
-4.9982e-07
5.64361e-08
-1.58961e-06
1.97158e-07
-2.35161e-06
3.61043e-07
-2.73196e-06
5.15587e-07
-2.82312e-06
6.55107e-07
-2.79746e-06
7.78793e-07
-2.71039e-06
8.88903e-07
-2.59739e-06
9.89863e-07
-2.48291e-06
1.08614e-06
-2.37849e-06
1.18102e-06
-2.2867e-06
1.27672e-06
-2.20574e-06
1.37461e-06
-2.13262e-06
1.47601e-06
-2.06436e-06
-1.99938e-06
1.58172e-06
4.89504e-08
1.00418e-06
5.01742e-08
1.35724e-06
1.33184e-08
1.53815e-06
-2.68538e-08
1.68619e-06
-5.59411e-08
1.77101e-06
-4.96438e-08
1.75475e-06
-5.38859e-09
1.60885e-06
1.03496e-07
1.30751e-06
2.78074e-07
8.47462e-07
3.38821e-07
2.0122e-07
2.93285e-07
-4.60287e-07
3.25483e-07
-1.61843e-06
4.11134e-07
-2.43769e-06
5.3883e-07
-2.85949e-06
6.63845e-07
-2.94768e-06
7.79564e-07
-2.91248e-06
8.83354e-07
-2.81331e-06
9.76905e-07
-2.68996e-06
1.0647e-06
-2.5697e-06
1.15095e-06
-2.46379e-06
1.23839e-06
-2.37329e-06
1.32848e-06
-2.29512e-06
1.42235e-06
-2.22547e-06
1.5203e-06
-2.16185e-06
-2.10165e-06
1.62365e-06
4.65998e-08
9.53247e-07
4.22778e-08
1.35801e-06
3.11522e-08
1.54932e-06
2.86888e-08
1.68242e-06
5.36174e-08
1.74397e-06
1.05616e-07
1.69746e-06
1.90467e-07
1.51658e-06
3.08197e-07
1.1806e-06
4.13688e-07
7.33116e-07
4.47899e-07
1.48154e-07
5.91788e-07
-6.04221e-07
6.15458e-07
-1.64684e-06
6.60213e-07
-2.48335e-06
7.4471e-07
-2.94459e-06
8.32223e-07
-3.03536e-06
9.17694e-07
-2.99777e-06
9.96551e-07
-2.8917e-06
1.06995e-06
-2.7627e-06
1.14228e-06
-2.64127e-06
1.21704e-06
-2.53779e-06
1.29594e-06
-2.4515e-06
1.37965e-06
-2.37807e-06
1.46806e-06
-2.31359e-06
1.56218e-06
-2.25472e-06
-2.20087e-06
1.6618e-06
5.57161e-08
8.91076e-07
6.76599e-08
1.34165e-06
8.79472e-08
1.52354e-06
1.30689e-07
1.63708e-06
1.97852e-07
1.66959e-06
2.88483e-07
1.59752e-06
3.97269e-07
1.39735e-06
5.15749e-07
1.04918e-06
6.44393e-07
5.8627e-07
7.87254e-07
-7.30591e-09
9.12382e-07
-7.38563e-07
9.11129e-07
-1.64713e-06
9.18275e-07
-2.49279e-06
9.614e-07
-2.98908e-06
1.00847e-06
-3.0832e-06
1.06101e-06
-3.05062e-06
1.11198e-06
-2.94262e-06
1.16333e-06
-2.81373e-06
1.21924e-06
-2.69669e-06
1.28196e-06
-2.59997e-06
1.35179e-06
-2.52077e-06
1.42804e-06
-2.45395e-06
1.51078e-06
-2.39532e-06
1.59921e-06
-2.34319e-06
-2.29537e-06
1.69465e-06
8.13105e-08
8.00927e-07
1.21411e-07
1.29553e-06
1.73539e-07
1.46725e-06
2.51809e-07
1.55207e-06
3.5717e-07
1.55656e-06
4.83179e-07
1.46142e-06
6.2506e-07
1.24297e-06
7.69563e-07
8.89129e-07
9.3268e-07
4.05561e-07
1.08776e-06
-1.76392e-07
1.17335e-06
-8.28722e-07
1.16186e-06
-1.64071e-06
1.15368e-06
-2.48718e-06
1.16652e-06
-3.00369e-06
1.17987e-06
-3.09768e-06
1.19996e-06
-3.07136e-06
1.22249e-06
-2.96541e-06
1.25203e-06
-2.84321e-06
1.29219e-06
-2.73658e-06
1.34328e-06
-2.65069e-06
1.40383e-06
-2.58094e-06
1.47242e-06
-2.522e-06
1.54768e-06
-2.4707e-06
1.63036e-06
-2.42471e-06
-2.38462e-06
1.71968e-06
1.2027e-07
6.73251e-07
1.90174e-07
1.21985e-06
2.67854e-07
1.38382e-06
3.73219e-07
1.44078e-06
5.07102e-07
1.41469e-06
6.62882e-07
1.29482e-06
8.33036e-07
1.0598e-06
1.00912e-06
6.96967e-07
1.17546e-06
2.2195e-07
1.29918e-06
-3.10666e-07
1.34921e-06
-8.86529e-07
1.35173e-06
-1.64691e-06
1.35053e-06
-2.48875e-06
1.34307e-06
-2.99812e-06
1.33409e-06
-3.09001e-06
1.324e-06
-3.06212e-06
1.32062e-06
-2.96251e-06
1.33137e-06
-2.85412e-06
1.35813e-06
-2.76328e-06
1.39882e-06
-2.69119e-06
1.45044e-06
-2.63233e-06
1.51065e-06
-2.58213e-06
1.57888e-06
-2.53808e-06
1.65387e-06
-2.50012e-06
-2.4669e-06
1.73687e-06
1.64577e-07
4.9698e-07
2.63722e-07
1.11445e-06
3.61075e-07
1.28132e-06
4.83441e-07
1.31276e-06
6.32737e-07
1.25622e-06
8.04247e-07
1.11267e-06
9.84857e-07
8.65939e-07
1.16003e-06
5.05968e-07
1.30813e-06
5.82214e-08
1.40351e-06
-4.16198e-07
1.45128e-06
-9.39928e-07
1.48777e-06
-1.68734e-06
1.50719e-06
-2.51092e-06
1.4869e-06
-2.97978e-06
1.45796e-06
-3.06246e-06
1.42334e-06
-3.02848e-06
1.40075e-06
-2.94054e-06
1.39821e-06
-2.85189e-06
1.41491e-06
-2.78008e-06
1.44676e-06
-2.72299e-06
1.48997e-06
-2.67541e-06
1.54237e-06
-2.63421e-06
1.60241e-06
-2.59855e-06
1.67086e-06
-2.56761e-06
-2.54287e-06
1.74664e-06
1.97669e-07
2.92958e-07
3.39755e-07
9.67567e-07
4.52307e-07
1.16409e-06
5.79432e-07
1.17862e-06
7.3137e-07
1.09779e-06
8.99583e-07
9.33453e-07
1.07192e-06
6.80719e-07
1.22712e-06
3.35687e-07
1.3567e-06
-8.42038e-08
1.44053e-06
-5.08317e-07
1.50475e-06
-1.00938e-06
1.58487e-06
-1.77114e-06
1.62706e-06
-2.5554e-06
1.5932e-06
-2.94764e-06
1.54546e-06
-3.01601e-06
1.49502e-06
-2.97901e-06
1.46173e-06
-2.90793e-06
1.45154e-06
-2.84212e-06
1.46118e-06
-2.78992e-06
1.48559e-06
-2.74747e-06
1.52112e-06
-2.71093e-06
1.56569e-06
-2.67892e-06
1.61905e-06
-2.65125e-06
1.67993e-06
-2.62913e-06
-2.61175e-06
1.7493e-06
2.04815e-07
7.62549e-08
4.03035e-07
7.64284e-07
5.35543e-07
1.02688e-06
6.63549e-07
1.04769e-06
8.03618e-07
9.48226e-07
9.56787e-07
7.71171e-07
1.10828e-06
5.16918e-07
1.24436e-06
1.86509e-07
1.3616e-06
-2.11682e-07
1.43595e-06
-5.8928e-07
1.52943e-06
-1.10746e-06
1.65403e-06
-1.89806e-06
1.70647e-06
-2.60993e-06
1.66113e-06
-2.90385e-06
1.59956e-06
-2.95566e-06
1.54177e-06
-2.92217e-06
1.5049e-06
-2.87176e-06
1.4912e-06
-2.8289e-06
1.49585e-06
-2.79485e-06
1.51397e-06
-2.76573e-06
1.54264e-06
-2.73968e-06
1.58065e-06
-2.71679e-06
1.62681e-06
-2.69803e-06
1.68177e-06
-2.68337e-06
-2.67452e-06
1.74419e-06
1.79116e-07
-1.09382e-07
4.35761e-07
5.04423e-07
6.00645e-07
8.59836e-07
7.27564e-07
9.13707e-07
8.54722e-07
8.17204e-07
9.85396e-07
6.31374e-07
1.11207e-06
3.79472e-07
1.23411e-06
5.35016e-08
1.33103e-06
-3.16312e-07
1.39929e-06
-6.62793e-07
1.54106e-06
-1.25177e-06
1.69951e-06
-2.05908e-06
1.74326e-06
-2.65514e-06
1.69344e-06
-2.85525e-06
1.62479e-06
-2.88804e-06
1.56698e-06
-2.86521e-06
1.53156e-06
-2.837e-06
1.51702e-06
-2.81485e-06
1.51817e-06
-2.79632e-06
1.53124e-06
-2.77899e-06
1.5543e-06
-2.76288e-06
1.58631e-06
-2.74908e-06
1.6272e-06
-2.73845e-06
1.67556e-06
-2.73248e-06
-2.73065e-06
1.73197e-06
1.16236e-07
-2.33948e-07
4.20638e-07
1.97118e-07
6.26699e-07
6.50289e-07
7.65946e-07
7.74057e-07
8.79213e-07
6.96813e-07
9.88337e-07
5.154e-07
1.09349e-06
2.66156e-07
1.20166e-06
-6.24231e-08
1.25954e-06
-3.79446e-07
1.34925e-06
-7.55591e-07
1.55653e-06
-1.4617e-06
1.72662e-06
-2.23006e-06
1.74813e-06
-2.67789e-06
1.69414e-06
-2.80228e-06
1.62669e-06
-2.82146e-06
1.57434e-06
-2.81362e-06
1.54321e-06
-2.80649e-06
1.52929e-06
-2.8014e-06
1.52819e-06
-2.79557e-06
1.53757e-06
-2.78862e-06
1.55635e-06
-2.78184e-06
1.58399e-06
-2.7767e-06
1.61939e-06
-2.77453e-06
1.66287e-06
-2.77547e-06
-2.78125e-06
1.71304e-06
6.38498e-08
-3.00621e-07
3.51147e-07
-9.12992e-08
5.97014e-07
4.04175e-07
7.52823e-07
6.1336e-07
8.65054e-07
5.83008e-07
9.57329e-07
4.1827e-07
1.04616e-06
1.71718e-07
1.11891e-06
-1.39944e-07
1.14828e-06
-4.11958e-07
1.31859e-06
-9.27974e-07
1.5892e-06
-1.73275e-06
1.7408e-06
-2.38302e-06
1.73161e-06
-2.6694e-06
1.67125e-06
-2.74267e-06
1.61004e-06
-2.76095e-06
1.56697e-06
-2.77119e-06
1.5414e-06
-2.78148e-06
1.52888e-06
-2.78933e-06
1.52674e-06
-2.79376e-06
1.5339e-06
-2.79603e-06
1.54977e-06
-2.79791e-06
1.57361e-06
-2.8009e-06
1.60527e-06
-2.80588e-06
1.64334e-06
-2.81431e-06
-2.826e-06
1.6882e-06
3.22383e-08
-3.33727e-07
2.07665e-07
-2.68234e-07
4.77398e-07
1.32216e-07
6.63366e-07
4.28845e-07
7.81635e-07
4.61098e-07
8.66376e-07
3.31132e-07
9.38476e-07
9.66214e-08
9.56211e-07
-1.59625e-07
1.03995e-06
-4.96825e-07
1.33868e-06
-1.22696e-06
1.62146e-06
-2.01653e-06
1.71718e-06
-2.47869e-06
1.68232e-06
-2.63513e-06
1.626e-06
-2.68692e-06
1.57927e-06
-2.71478e-06
1.5475e-06
-2.73997e-06
1.52763e-06
-2.76209e-06
1.51715e-06
-2.77926e-06
1.51519e-06
-2.79213e-06
1.52141e-06
-2.80251e-06
1.53537e-06
-2.8121e-06
1.55663e-06
-2.82222e-06
1.58418e-06
-2.8341e-06
1.61827e-06
-2.8481e-06
-2.8659e-06
1.65771e-06
-7.77752e-09
-3.25981e-07
3.82378e-08
-3.14287e-07
2.72136e-07
-1.00432e-07
4.6859e-07
2.29601e-07
5.9756e-07
3.33371e-07
6.81403e-07
2.4622e-07
7.22422e-07
5.50323e-08
7.46867e-07
-1.8401e-07
1.01022e-06
-7.59887e-07
1.39898e-06
-1.61577e-06
1.61962e-06
-2.23653e-06
1.64896e-06
-2.50859e-06
1.61483e-06
-2.60119e-06
1.5734e-06
-2.64586e-06
1.54128e-06
-2.68309e-06
1.5187e-06
-2.71784e-06
1.5038e-06
-2.7476e-06
1.49597e-06
-2.7718e-06
1.49523e-06
-2.79169e-06
1.50145e-06
-2.80897e-06
1.51425e-06
-2.82513e-06
1.53309e-06
-2.84141e-06
1.55787e-06
-2.85873e-06
1.58756e-06
-2.87849e-06
-2.90081e-06
1.62246e-06
-2.50435e-08
-3.00931e-07
-6.75713e-08
-2.71375e-07
-2.79543e-09
-1.6518e-07
1.67173e-07
6.40377e-08
2.92292e-07
2.06659e-07
3.62829e-07
1.77051e-07
4.0702e-07
1.36118e-08
6.31627e-07
-4.07056e-07
1.08934e-06
-1.2166e-06
1.44409e-06
-1.96965e-06
1.57278e-06
-2.36542e-06
1.57581e-06
-2.51107e-06
1.5466e-06
-2.57212e-06
1.51845e-06
-2.61796e-06
1.49727e-06
-2.66223e-06
1.48198e-06
-2.70291e-06
1.47198e-06
-2.73796e-06