/*--------------------------------*- C++ -*----------------------------------*\
  =========                 |
  \\      /  F ield         | OpenFOAM: The Open Source CFD Toolbox
   \\    /   O peration     | Website:  https://openfoam.org
    \\  /    A nd           | Version:  13
     \\/     M anipulation  |
\*---------------------------------------------------------------------------*/
FoamFile
{
    format      ascii;
    class       surfaceScalarField;
    location    "14";
    object      phi;
}
// * * * * * * * * * * * * * * * * * * * * * * * * * * * * * * * * * * * * * //

dimensions      [0 3 -1 0 0 0 0];

internalField   nonuniform List<scalar> 
12590
(
1.47466e-12
-1.4747e-12
3.34309e-12
-1.86848e-12
4.93255e-12
-1.58953e-12
6.35527e-12
-1.42278e-12
7.61036e-12
-1.25516e-12
8.58131e-12
-9.71008e-13
9.27633e-12
-6.95073e-13
9.63369e-12
-3.57423e-13
9.60442e-12
2.92169e-14
9.15733e-12
4.47034e-13
8.28618e-12
8.71087e-13
7.01503e-12
1.2711e-12
5.39967e-12
1.61531e-12
3.52589e-12
1.87373e-12
1.50094e-12
2.02489e-12
-5.7926e-13
2.08015e-12
-2.6085e-12
2.02919e-12
-4.45196e-12
1.8434e-12
-5.94981e-12
1.49781e-12
-7.11405e-12
1.16419e-12
-7.98564e-12
8.71544e-13
-8.20574e-12
2.20053e-13
-7.50147e-12
-7.04338e-13
-4.51459e-12
-2.98694e-12
-4.5146e-12
1.26663e-12
-2.7414e-12
2.83654e-12
-3.43849e-12
4.21142e-12
-2.96449e-12
5.50699e-12
-2.71844e-12
6.75613e-12
-2.5044e-12
7.81761e-12
-2.03257e-12
8.70895e-12
-1.5865e-12
9.38552e-12
-1.03409e-12
9.81749e-12
-4.02838e-13
9.98635e-12
2.78085e-13
9.88345e-12
9.73909e-13
9.51281e-12
1.64165e-12
8.89248e-12
2.23556e-12
8.05529e-12
2.71084e-12
7.06387e-12
3.01623e-12
6.01415e-12
3.12979e-12
4.96665e-12
3.07662e-12
3.9425e-12
2.86748e-12
2.95257e-12
2.48765e-12
2.14852e-12
1.96816e-12
1.58984e-12
1.43015e-12
1.02217e-12
7.87644e-13
5.62197e-13
-2.4445e-13
5.19255e-14
-2.47675e-12
-4.46268e-12
1.32628e-12
-4.06777e-12
2.84484e-12
-4.95716e-12
4.2363e-12
-4.35606e-12
5.62374e-12
-4.106e-12
7.01778e-12
-3.89854e-12
8.41209e-12
-3.42699e-12
9.51852e-12
-2.69304e-12
1.04338e-11
-1.9495e-12
1.11115e-11
-1.08065e-12
1.15121e-11
-1.22523e-13
1.1602e-11
8.83841e-13
1.13602e-11
1.88341e-12
1.07848e-11
2.8108e-12
9.8997e-12
3.59588e-12
8.7512e-12
4.16464e-12
7.39769e-12
4.48321e-12
5.89329e-12
4.58093e-12
4.3e-12
4.46068e-12
2.76931e-12
4.01826e-12
1.56686e-12
3.17053e-12
6.98524e-13
2.2984e-12
1.1752e-14
1.47433e-12
-1.889e-13
-4.38969e-14
-2.55034e-13
-2.41071e-12
-4.71773e-12
1.49044e-12
-5.55832e-12
3.01711e-12
-6.48395e-12
4.43565e-12
-5.77473e-12
5.88241e-12
-5.55288e-12
7.33897e-12
-5.35523e-12
8.81142e-12
-4.89957e-12
1.01454e-11
-4.0271e-12
1.11514e-11
-2.95566e-12
1.19324e-11
-1.86178e-12
1.24416e-11
-6.31761e-13
1.26438e-11
6.81482e-13
1.25093e-11
2.0178e-12
1.2022e-11
3.29794e-12
1.11778e-11
4.44007e-12
9.99201e-12
5.3503e-12
8.52886e-12
5.94626e-12
6.87112e-12
6.23857e-12
5.06352e-12
6.26819e-12
3.26368e-12
5.81801e-12
1.69846e-12
4.73565e-12
6.47875e-13
3.3489e-12
-1.03261e-13
2.22537e-12
-3.62747e-13
2.15482e-13
-3.34389e-13
-2.43917e-12
-5.05213e-12
1.65833e-12
-7.21678e-12
3.19467e-12
-8.02043e-12
4.62049e-12
-7.2007e-12
6.07903e-12
-7.01157e-12
7.53291e-12
-6.80926e-12
8.94635e-12
-6.31315e-12
1.04071e-11
-5.48798e-12
1.14561e-11
-4.00484e-12
1.22853e-11
-2.69103e-12
1.28674e-11
-1.214e-12
1.31741e-11
3.74618e-13
1.31671e-11
2.02466e-12
1.28122e-11
3.65272e-12
1.20871e-11
5.16509e-12
1.09799e-11
6.45732e-12
9.53097e-12
7.39512e-12
7.84631e-12
7.92313e-12
6.00113e-12
8.11327e-12
4.01185e-12
7.80718e-12
2.09353e-12
6.65387e-12
8.51268e-13
4.59106e-12
1.82552e-13
2.89399e-12
-4.24104e-13
8.22022e-13
-3.77644e-13
-2.48574e-12
-5.42979e-12
1.80413e-12
-9.02105e-12
3.33893e-12
-9.55541e-12
4.75187e-12
-8.61382e-12
6.17932e-12
-8.43919e-12
7.5693e-12
-8.19941e-12
8.88627e-12
-7.63028e-12
1.01338e-11
-6.7357e-12
1.15336e-11
-5.40476e-12
1.22902e-11
-3.44781e-12
1.28973e-11
-1.82125e-12
1.32893e-11
-1.74847e-14
1.34212e-11
1.89262e-12
1.32414e-11
3.83236e-12
1.27077e-11
5.69871e-12
1.1784e-11
7.38088e-12
1.04552e-11
8.72373e-12
8.80869e-12
9.56955e-12
6.98495e-12
9.93689e-12
4.92578e-12
9.86624e-12
2.75004e-12
8.8295e-12
1.17009e-12
6.1709e-12
3.44143e-13
3.71982e-12
-3.40145e-13
1.50619e-12
-4.28701e-13
-2.39731e-12
-5.85851e-12
1.92689e-12
-1.09481e-11
3.45165e-12
-1.10804e-11
4.83991e-12
-1.00023e-11
6.21381e-12
-9.8133e-12
7.51875e-12
-9.50455e-12
8.73351e-12
-8.84525e-12
9.87527e-12
-7.87766e-12
1.10972e-11
-6.62692e-12
1.19269e-11
-4.27763e-12
1.25712e-11
-2.46578e-12
1.30442e-11
-4.90609e-13
1.33291e-11
1.60758e-12
1.33708e-11
3.79048e-12
1.3104e-11
5.96537e-12
1.24702e-11
8.01455e-12
1.14082e-11
9.7856e-12
9.91559e-12
1.1062e-11
8.1221e-12
1.17303e-11
6.08653e-12
1.19017e-11
3.79469e-12
1.11212e-11
1.69827e-12
8.2672e-12
4.96435e-13
4.92154e-12
-1.6302e-13
2.1655e-12
-4.61669e-13
-2.09879e-12
-6.3202e-12
2.02867e-12
-1.2977e-11
3.54016e-12
-1.25921e-11
4.89706e-12
-1.13594e-11
6.20083e-12
-1.11173e-11
7.39634e-12
-1.07003e-11
8.46958e-12
-9.91872e-12
9.43896e-12
-8.84725e-12
1.03324e-11
-7.52063e-12
1.15969e-11
-5.54233e-12
1.21128e-11
-2.98186e-12
1.26116e-11
-9.89531e-13
1.30378e-11
1.18121e-12
1.33348e-11
3.49324e-12
1.3413e-11
5.88704e-12
1.3176e-11
8.25135e-12
1.25231e-11
1.04384e-11
1.13558e-11
1.22292e-11
9.72777e-12
1.33581e-11
7.82377e-12
1.38056e-11
5.35648e-12
1.35884e-11
2.61174e-12
1.10118e-11
8.22568e-13
6.71058e-12
2.71239e-13
2.71669e-12
-5.005e-13
-1.3272e-12
-6.82073e-12
2.10857e-12
-1.50858e-11
3.608e-12
-1.40918e-11
4.93562e-12
-1.26874e-11
6.17274e-12
-1.23547e-11
7.27324e-12
-1.18011e-11
8.23983e-12
-1.08856e-11
9.10456e-12
-9.71224e-12
9.91337e-12
-8.32969e-12
1.09862e-11
-6.61539e-12
1.15958e-11
-3.5917e-12
1.2157e-11
-1.5509e-12
1.27293e-11
6.08656e-13
1.32921e-11
2.93027e-12
1.37605e-11
5.4185e-12
1.40028e-11
8.00884e-12
1.38702e-11
1.05709e-11
1.31979e-11
1.29013e-11
1.18683e-11
1.46876e-11
9.97496e-12
1.56988e-11
7.59435e-12
1.59688e-11
4.315e-12
1.4291e-11
1.85662e-12
9.16882e-12
8.61543e-13
3.7116e-12
-5.4648e-13
8.06682e-14
-7.36724e-12
2.16386e-12
-1.725e-11
3.65615e-12
-1.55845e-11
4.96625e-12
-1.39978e-11
6.15925e-12
-1.35481e-11
7.20533e-12
-1.28475e-11
8.124e-12
-1.18046e-11
8.95178e-12
-1.05403e-11
9.72953e-12
-9.10772e-12
1.05591e-11
-7.44524e-12
1.15201e-11
-4.55291e-12
1.2056e-11
-2.08708e-12
1.27367e-11
-7.22604e-14
1.35421e-11
2.12469e-12
1.44057e-11
4.55477e-12
1.51836e-11
7.23076e-12
1.56728e-11
1.00815e-11
1.56376e-11
1.29364e-11
1.48297e-11
1.54954e-11
1.31806e-11
1.73477e-11
1.08536e-11
1.82957e-11
7.19163e-12
1.79529e-11
3.48178e-12
1.28785e-11
1.14407e-12
6.04916e-12
-1.31612e-13
1.35618e-12
-7.49889e-12
2.18953e-12
-1.94399e-11
3.68193e-12
-1.70773e-11
4.9963e-12
-1.53126e-11
6.189e-12
-1.47412e-11
7.25556e-12
-1.39145e-11
8.23494e-12
-1.27843e-11
9.16686e-12
-1.14726e-11
1.00811e-11
-1.00223e-11
1.10129e-11
-8.37728e-12
1.1999e-11
-5.53927e-12
1.26902e-11
-2.77853e-12
1.35347e-11
-9.17007e-13
1.45597e-11
1.09947e-12
1.57515e-11
3.36285e-12
1.70098e-11
5.97226e-12
1.81244e-11
8.96673e-12
1.87913e-11
1.22693e-11
1.86411e-11
1.56455e-11
1.7347e-11
1.86416e-11
1.48195e-11
2.08231e-11
1.09918e-11
2.17805e-11
5.7477e-12
1.81224e-11
1.72092e-12
1.00758e-11
3.45398e-13
2.73155e-12
-7.15353e-12
2.17878e-12
-2.1619e-11
3.6786e-12
-1.85776e-11
5.02674e-12
-1.66612e-11
6.27998e-12
-1.59949e-11
7.46808e-12
-1.5103e-11
8.65266e-12
-1.39693e-11
9.87643e-12
-1.26967e-11
1.11546e-11
-1.13009e-11
1.24714e-11
-9.69431e-12
1.36393e-11
-6.70751e-12
1.46945e-11
-3.83392e-12
1.58484e-11
-2.07116e-12
1.71279e-11
-1.80205e-13
1.85609e-11
1.92961e-12
2.0137e-11
4.39599e-12
2.17341e-11
7.36949e-12
2.30598e-11
1.09434e-11
2.365e-11
1.50552e-11
2.29417e-11
1.93498e-11
2.05618e-11
2.32028e-11
1.64406e-11
2.59015e-11
9.73442e-12
2.48285e-11
3.6151e-12
1.6195e-11
5.31151e-13
5.81535e-12
-6.62241e-12
2.12504e-12
-2.37446e-11
3.6392e-12
-2.00923e-11
5.05697e-12
-1.80796e-11
6.4442e-12
-1.73827e-11
7.87189e-12
-1.65312e-11
9.42694e-12
-1.55248e-11
1.11539e-11
-1.44241e-11
1.30476e-11
-1.3195e-11
1.50576e-11
-1.17047e-11
1.67195e-11
-8.36963e-12
1.85001e-11
-5.61479e-12
2.02977e-11
-3.86904e-12
2.20744e-11
-1.95707e-12
2.38358e-11
1.68023e-13
2.56205e-11
2.61119e-12
2.74442e-11
5.5457e-12
2.91707e-11
9.21674e-12
3.03867e-11
1.38391e-11
3.03838e-11
1.93526e-11
2.8433e-11
2.51535e-11
2.40172e-11
3.03172e-11
1.65568e-11
3.22888e-11
7.35469e-12
2.53969e-11
1.76688e-12
1.1403e-11
-4.85555e-12
2.02412e-12
-2.57692e-11
3.56029e-12
-2.16291e-11
5.0894e-12
-1.96093e-11
6.6932e-12
-1.89871e-11
8.48756e-12
-1.83261e-11
1.0586e-11
-1.76238e-11
1.30377e-11
-1.68761e-11
1.58189e-11
-1.59765e-11
1.88599e-11
-1.4746e-11
2.14188e-11
-1.09288e-11
2.44453e-11
-8.64158e-12
2.74253e-11
-6.8492e-12
3.02127e-11
-4.74458e-12
3.27015e-11
-2.32092e-12
3.48693e-11
4.43262e-13
3.68132e-11
3.60169e-12
3.86024e-11
7.42744e-12
4.00132e-11
1.24282e-11
4.03793e-11
1.89865e-11
3.86265e-11
2.69062e-11
3.36637e-11
3.52799e-11
2.50252e-11
4.09273e-11
1.33717e-11
3.70503e-11
3.46982e-12
2.13048e-11
-1.38575e-12
1.87568e-12
-2.76455e-11
3.44296e-12
-2.3197e-11
5.12921e-12
-2.12961e-11
7.03556e-12
-2.0894e-11
9.32098e-12
-2.06121e-11
1.21227e-11
-2.0426e-11
1.54941e-11
-2.0248e-11
1.93946e-11
-1.98774e-11
2.37359e-11
-1.90877e-11
2.78464e-11
-1.50396e-11
3.26117e-11
-1.34071e-11
3.74463e-11
-1.1684e-11
4.2097e-11
-9.3955e-12
4.63108e-11
-6.53487e-12
4.98325e-11
-3.07848e-12
5.26467e-11
7.87388e-13
5.45845e-11
5.48953e-12
5.55174e-11
1.14953e-11
5.5297e-11
1.92067e-11
5.3346e-11
2.88572e-11
4.79743e-11
4.06515e-11
3.76522e-11
5.12493e-11
2.27159e-11
5.19865e-11
6.47271e-12
3.75479e-11
5.08696e-12
1.68088e-12
-2.93269e-11
3.28531e-12
-2.4802e-11
5.1732e-12
-2.31846e-11
7.46172e-12
-2.31831e-11
1.03477e-11
-2.34986e-11
1.39899e-11
-2.40687e-11
1.84414e-11
-2.47e-11
2.36397e-11
-2.50761e-11
2.93812e-11
-2.48296e-11
3.57942e-11
-2.14528e-11
4.26385e-11
-2.02517e-11
5.00127e-11
-1.90583e-11
5.74981e-11
-1.68811e-11
6.50881e-11
-1.4125e-11
7.21039e-11
-1.00944e-11
7.7359e-11
-4.46784e-12
8.06226e-11
2.22594e-12
8.19107e-11
1.0207e-11
8.10529e-11
2.00645e-11
7.72782e-11
3.26318e-11
7.00003e-11
4.79294e-11
5.72615e-11
6.3988e-11
3.68766e-11
7.23715e-11
1.23927e-11
6.20318e-11
1.74796e-11
1.41809e-12
-3.07454e-11
3.03602e-12
-2.64204e-11
5.14302e-12
-2.52921e-11
7.83178e-12
-2.58723e-11
1.13209e-11
-2.69882e-11
1.57827e-11
-2.8531e-11
2.12973e-11
-3.02151e-11
2.77786e-11
-3.15579e-11
3.5078e-11
-3.21294e-11
4.40325e-11
-3.04077e-11
5.36137e-11
-2.98332e-11
6.40271e-11
-2.9472e-11
7.53913e-11
-2.82455e-11
8.63531e-11
-2.5087e-11
9.62989e-11
-2.00404e-11
1.04914e-10
-1.30834e-11
1.11726e-10
-4.58577e-12
1.15657e-10
6.27575e-12
1.16173e-10
1.95483e-11
1.12932e-10
3.58733e-11
1.04598e-10
5.6263e-11
8.88734e-11
7.97125e-11
6.19234e-11
9.93215e-11
2.3852e-11
1.00103e-10
4.13316e-11
9.48325e-13
-3.1694e-11
2.43196e-12
-2.79043e-11
4.63293e-12
-2.74934e-11
7.70656e-12
-2.89463e-11
1.18476e-11
-3.11296e-11
1.72252e-11
-3.39092e-11
2.40388e-11
-3.70292e-11
3.23351e-11
-3.98548e-11
4.19133e-11
-4.17081e-11
5.27271e-11
-4.1222e-11
6.48745e-11
-4.19811e-11
7.75396e-11
-4.21375e-11
9.03863e-11
-4.10926e-11
1.03995e-10
-3.86962e-11
1.18647e-10
-3.46926e-11
1.33586e-10
-2.80223e-11
1.46942e-10
-1.79419e-11
1.57209e-10
-3.99195e-12
1.64487e-10
1.22703e-11
1.6668e-10
3.36799e-11
1.6164e-10
6.1303e-11
1.45792e-10
9.55613e-11
1.13226e-10
1.31887e-10
5.24833e-11
1.60847e-10
9.38149e-11
7.58126e-13
-3.24523e-11
2.47575e-12
-2.96221e-11
5.12708e-12
-3.01449e-11
8.93546e-12
-3.2755e-11
1.43793e-11
-3.6574e-11
2.15951e-11
-4.11256e-11
3.02415e-11
-4.56763e-11
4.00416e-11
-4.96556e-11
5.07019e-11
-5.23692e-11
6.35228e-11
-5.40436e-11
7.76044e-11
-5.60633e-11
9.24396e-11
-5.69732e-11
1.07826e-10
-5.64791e-11
1.23442e-10
-5.43128e-11
1.39143e-10
-5.03944e-11
1.55655e-10
-4.45345e-11
1.74095e-10
-3.63825e-11
1.95454e-10
-2.53508e-11
2.15257e-10
-7.53365e-12
2.3189e-10
1.70469e-11
2.4503e-10
4.81628e-11
2.46017e-10
9.45745e-11
2.22143e-10
1.5576e-10
1.44589e-10
2.38401e-10
2.38404e-10
6.55794e-13
-3.31081e-11
2.76472e-12
-3.17311e-11
6.41523e-12
-3.37956e-11
1.16745e-11
-3.80147e-11
1.84435e-11
-4.33436e-11
2.67758e-11
-4.94586e-11
3.67563e-11
-5.56576e-11
4.80037e-11
-6.09039e-11
6.08221e-11
-6.51885e-11
7.5817e-11
-6.90394e-11
9.17405e-11
-7.19875e-11
1.08453e-10
-7.36869e-11
1.25796e-10
-7.38222e-11
1.43663e-10
-7.21809e-11
1.61797e-10
-6.85282e-11
1.79797e-10
-6.25353e-11
1.98107e-10
-5.46925e-11
2.17529e-10
-4.47738e-11
2.42517e-10
-3.2522e-11
2.76188e-10
-1.66239e-11
3.19233e-10
5.11741e-12
3.77656e-10
3.61512e-11
4.45382e-10
8.80345e-11
4.55924e-10
2.27859e-10
6.94328e-10
9.69499e-13
-3.40776e-11
3.6616e-12
-3.44233e-11
7.63488e-12
-3.77691e-11
1.28281e-11
-4.32084e-11
1.9304e-11
-4.98201e-11
2.70451e-11
-5.72005e-11
3.60386e-11
-6.46521e-11
4.61755e-11
-7.10418e-11
5.84967e-11
-7.75107e-11
7.19428e-11
-8.24864e-11
8.64805e-11
-8.65261e-11
1.01948e-10
-8.91557e-11
1.18281e-10
-9.01559e-11
1.35423e-10
-8.93227e-11
1.53357e-10
-8.64629e-11
1.71242e-10
-8.04211e-11
1.89502e-10
-7.29534e-11
2.0813e-10
-6.3402e-11
2.28143e-10
-5.25348e-11
2.49024e-10
-3.75056e-11
2.70987e-10
-1.68459e-11
2.94613e-10
1.25259e-11
3.28465e-10
5.41819e-11
4.6361e-10
9.27147e-11
6.15752e-11
1.09636e-09
1.02087e-12
-3.50985e-11
4.0432e-12
-3.74457e-11
8.64457e-12
-4.23708e-11
1.47573e-11
-4.93216e-11
2.23699e-11
-5.74335e-11
3.14414e-11
-6.6273e-11
4.1991e-11
-7.52027e-11
5.44069e-11
-8.34589e-11
6.81629e-11
-9.12679e-11
8.34819e-11
-9.78064e-11
1.00062e-10
-1.03107e-10
1.17819e-10
-1.06913e-10
1.36661e-10
-1.08999e-10
1.56503e-10
-1.09165e-10
1.77253e-10
-1.07213e-10
1.99705e-10
-1.02874e-10
2.23075e-10
-9.63237e-11
2.47546e-10
-8.78731e-11
2.73022e-10
-7.80114e-11
3.00553e-10
-6.50371e-11
3.31416e-10
-4.77087e-11
3.68787e-10
-2.48445e-11
4.19433e-10
3.53506e-12
4.87454e-10
2.46942e-11
1.96624e-11
5.29367e-10
1.08841e-12
-3.61869e-11
4.4601e-12
-4.08175e-11
9.68675e-12
-4.75978e-11
1.66801e-11
-5.63155e-11
2.54075e-11
-6.61617e-11
3.5845e-11
-7.67115e-11
4.79747e-11
-8.73336e-11
6.1966e-11
-9.74514e-11
7.74756e-11
-1.06779e-10
9.46044e-11
-1.14936e-10
1.13219e-10
-1.21723e-10
1.33237e-10
-1.26932e-10
1.54596e-10
-1.30358e-10
1.77252e-10
-1.31823e-10
2.01207e-10
-1.31168e-10
2.26615e-10
-1.28283e-10
2.53507e-10
-1.23216e-10
2.81753e-10
-1.16119e-10
3.1073e-10
-1.06989e-10
3.40869e-10
-9.51761e-11
3.72554e-10
-7.93935e-11
4.05741e-10
-5.80314e-11
4.38674e-10
-2.9398e-11
4.55028e-10
8.34052e-12
5.80785e-11
4.16612e-10
1.16452e-12
-3.73514e-11
4.86957e-12
-4.45227e-11
1.06781e-11
-5.34067e-11
1.84783e-11
-6.41163e-11
2.82182e-11
-7.59024e-11
3.98576e-11
-8.8352e-11
5.33689e-11
-1.00846e-10
6.87434e-11
-1.12827e-10
8.58722e-11
-1.23909e-10
1.04716e-10
-1.33781e-10
1.2521e-10
-1.42219e-10
1.47294e-10
-1.49016e-10
1.70919e-10
-1.53985e-10
1.96053e-10
-1.56957e-10
2.22675e-10
-1.5779e-10
2.50769e-10
-1.56378e-10
2.80241e-10
-1.52688e-10
3.10781e-10
-1.46659e-10
3.41871e-10
-1.38079e-10
3.73036e-10
-1.26341e-10
4.03497e-10
-1.09855e-10
4.31389e-10
-8.59234e-11
4.52754e-10
-5.07628e-11
4.58914e-10
2.18002e-12
8.36079e-11
4.33385e-10
1.233e-12
-3.85845e-11
5.23422e-12
-4.85241e-11
1.15564e-11
-5.97291e-11
2.0064e-11
-7.26244e-11
3.06861e-11
-8.65253e-11
4.33677e-11
-1.01035e-10
5.80581e-11
-1.15538e-10
7.47057e-11
-1.29476e-10
9.3242e-11
-1.42446e-10
1.1361e-10
-1.5415e-10
1.35751e-10
-1.64361e-10
1.59615e-10
-1.7288e-10
1.85154e-10
-1.79525e-10
2.12324e-10
-1.84127e-10
2.41064e-10
-1.86531e-10
2.71277e-10
-1.86591e-10
3.02746e-10
-1.84157e-10
3.35084e-10
-1.78997e-10
3.67651e-10
-1.70646e-10
3.99458e-10
-1.58149e-10
4.29883e-10
-1.4028e-10
4.5619e-10
-1.1223e-10
4.76186e-10
-7.07584e-11
4.86448e-10
-8.08187e-12
8.56059e-11
4.8445e-10
1.28637e-12
-3.98708e-11
5.53748e-12
-5.27753e-11
1.22961e-11
-6.64881e-11
2.14065e-11
-8.17353e-11
3.27836e-11
-9.79032e-11
4.63567e-11
-1.14609e-10
6.20563e-11
-1.31238e-10
7.98132e-11
-1.47234e-10
9.95582e-11
-1.62193e-10
1.21229e-10
-1.75823e-10
1.44768e-10
-1.87901e-10
1.70119e-10
-1.98233e-10
1.97229e-10
-2.06636e-10
2.26033e-10
-2.12931e-10
2.56438e-10
-2.16937e-10
2.88294e-10
-2.18448e-10
3.21343e-10
-2.17206e-10
3.55167e-10
-2.12821e-10
3.89145e-10
-2.04625e-10
4.22453e-10
-1.91457e-10
4.53673e-10
-1.71501e-10
4.82371e-10
-1.40928e-10
5.07089e-10
-9.54756e-11
5.27906e-10
-2.88991e-11
6.57869e-11
5.47725e-10
1.32094e-12
-4.11918e-11
5.77066e-12
-5.72251e-11
1.28849e-11
-7.36026e-11
2.24939e-11
-9.13449e-11
3.45002e-11
-1.0991e-10
4.88173e-11
-1.28927e-10
6.53597e-11
-1.47782e-10
8.40458e-11
-1.65922e-10
1.04799e-10
-1.82947e-10
1.27552e-10
-1.98577e-10
1.52241e-10
-2.12591e-10
1.78805e-10
-2.24798e-10
2.07178e-10
-2.35009e-10
2.37278e-10
-2.43032e-10
2.68992e-10
-2.48651e-10
3.0215e-10
-2.51606e-10
3.36493e-10
-2.51549e-10
3.71637e-10
-2.47966e-10
4.07068e-10
-2.40056e-10
4.4216e-10
-2.26548e-10
4.76121e-10
-2.05461e-10
5.08958e-10
-1.73765e-10
5.40813e-10
-1.27331e-10
5.73417e-10
-6.15025e-11
2.82642e-11
6.10939e-10
1.33531e-12
-4.2527e-11
5.93138e-12
-6.18212e-11
1.33218e-11
-8.09932e-11
2.33281e-11
-1.01352e-10
3.58399e-11
-1.22423e-10
5.0756e-11
-1.43844e-10
6.79782e-11
-1.65006e-10
8.74145e-11
-1.85359e-10
1.08981e-10
-2.04515e-10
1.32604e-10
-2.22201e-10
1.58214e-10
-2.38202e-10
1.85741e-10
-2.52326e-10
2.15111e-10
-2.6438e-10
2.46233e-10
-2.74155e-10
2.78988e-10
-2.81407e-10
3.13212e-10
-2.8583e-10
3.48679e-10
-2.87016e-10
3.85092e-10
-2.8438e-10
4.22099e-10
-2.77063e-10
4.59352e-10
-2.63801e-10
4.96653e-10
-2.42762e-10
5.343e-10
-2.11412e-10
5.73506e-10
-1.66537e-10
6.16637e-10
-1.04634e-10
-2.28578e-11
6.67759e-10
1.33038e-12
-4.38572e-11
6.0222e-12
-6.65129e-11
1.3614e-11
-8.85852e-11
2.39206e-11
-1.11659e-10
3.6819e-11
-1.35322e-10
5.21961e-11
-1.59222e-10
6.99434e-11
-1.82754e-10
8.99609e-11
-2.05378e-10
1.12159e-10
-2.26715e-10
1.36456e-10
-2.46499e-10
1.62778e-10
-2.64525e-10
1.91051e-10
-2.806e-10
2.21195e-10
-2.94526e-10
2.5312e-10
-3.06081e-10
2.86716e-10
-3.15002e-10
3.21842e-10
-3.20957e-10
3.5833e-10
-3.23504e-10
3.9599e-10
-3.22039e-10
4.34645e-10
-3.15718e-10
4.74214e-10
-3.03371e-10
5.14867e-10
-2.83415e-10
5.57278e-10
-2.53823e-10
6.02965e-10
-2.12224e-10
6.54515e-10
-1.56184e-10
-8.38932e-11
7.1555e-10
1.30801e-12
-4.51651e-11
6.04955e-12
-7.12544e-11
1.3774e-11
-9.63097e-11
2.429e-11
-1.22175e-10
3.74645e-11
-1.48497e-10
5.31745e-11
-1.74933e-10
7.13046e-11
-2.00885e-10
9.17488e-11
-2.25824e-10
1.14412e-10
-2.49379e-10
1.39208e-10
-2.71297e-10
1.6606e-10
-2.91378e-10
1.94891e-10
-3.09432e-10
2.25624e-10
-3.2526e-10
2.58177e-10
-3.38634e-10
2.92457e-10
-3.49283e-10
3.28363e-10
-3.56864e-10
3.65793e-10
-3.60934e-10
4.04661e-10
-3.60907e-10
4.44947e-10
-3.56005e-10
4.86781e-10
-3.45205e-10
5.30571e-10
-3.27206e-10
5.77199e-10
-3.00451e-10
6.28229e-10
-2.63254e-10
6.86123e-10
-2.14078e-10
-1.51778e-10
7.54007e-10
1.27113e-12
-4.6436e-11
6.02199e-12
-7.60051e-11
1.38172e-11
-1.04105e-10
2.44602e-11
-1.32819e-10
3.78103e-11
-1.61848e-10
5.37381e-11
-1.90862e-10
7.2123e-11
-2.19271e-10
9.28546e-11
-2.46557e-10
1.15835e-10
-2.7236e-10
1.40975e-10
-2.96439e-10
1.68197e-10
-3.18601e-10
1.97426e-10
-3.38662e-10
2.28593e-10
-3.56427e-10
2.61628e-10
-3.7167e-10
2.96465e-10
-3.84121e-10
3.33046e-10
-3.93445e-10
3.71331e-10
-3.9922e-10
4.1133e-10
-4.00907e-10
4.53147e-10
-3.97822e-10
4.97054e-10
-3.89111e-10
5.43598e-10
-3.7375e-10
5.93734e-10
-3.50587e-10
6.48951e-10
-3.18471e-10
7.11337e-10
-2.76464e-10
-2.24149e-10
7.83707e-10
1.22273e-12
-4.76584e-11
5.94909e-12
-8.07312e-11
1.37604e-11
-1.11916e-10
2.44574e-11
-1.43516e-10
3.78947e-11
-1.75286e-10
5.39382e-11
-2.06906e-10
7.24642e-11
-2.37799e-10
9.33603e-11
-2.67454e-10
1.16527e-10
-2.95528e-10
1.41875e-10
-3.21789e-10
1.69328e-10
-3.46055e-10
1.98818e-10
-3.68153e-10
2.30284e-10
-3.87894e-10
2.63675e-10
-4.05061e-10
2.98952e-10
-4.19399e-10
3.36099e-10
-4.30592e-10
3.75134e-10
-4.38255e-10
4.16143e-10
-4.41916e-10
4.59317e-10
-4.40996e-10
5.05017e-10
-4.34812e-10
5.53853e-10
-4.22586e-10
6.06771e-10
-4.03505e-10
6.65123e-10
-3.76823e-10
7.30696e-10
-3.42038e-10
-2.99116e-10
8.05663e-10
1.16614e-12
-4.88242e-11
5.83999e-12
-8.54048e-11
1.36207e-11
-1.19697e-10
2.4309e-11
-1.54204e-10
3.77563e-11
-1.88734e-10
5.38264e-11
-2.22978e-10
7.2394e-11
-2.56367e-10
9.33462e-11
-2.88408e-10
1.16584e-10
-3.18767e-10
1.4202e-10
-3.47227e-10
1.69583e-10
-3.73619e-10
1.9921e-10
-3.97781e-10
2.30854e-10
-4.19539e-10
2.64483e-10
-4.38691e-10
3.00084e-10
-4.55e-10
3.37677e-10
-4.68186e-10
3.7733e-10
-4.77909e-10
4.19183e-10
-4.83768e-10
4.63483e-10
-4.85297e-10
5.10639e-10
-4.81967e-10
5.61268e-10
-4.73215e-10
6.16259e-10
-4.58496e-10
6.76807e-10
-4.37371e-10
7.44405e-10
-4.09636e-10
-3.75484e-10
8.20772e-10
1.10403e-12
-4.99278e-11
5.70317e-12
-9.00035e-11
1.34144e-11
-1.27408e-10
2.40403e-11
-1.64831e-10
3.74317e-11
-2.02126e-10
5.34511e-11
-2.38998e-10
7.19734e-11
-2.74891e-10
9.28867e-11
-3.09322e-10
1.16094e-10
-3.41975e-10
1.41512e-10
-3.72647e-10
1.69074e-10
-4.01182e-10
1.98727e-10
-4.27435e-10
2.30436e-10
-4.51248e-10
2.64186e-10
-4.72441e-10
2.99988e-10
-4.90803e-10
3.37892e-10
-5.0609e-10
3.78001e-10
-5.18018e-10
4.20492e-10
-5.26259e-10
4.65645e-10
-5.30451e-10
5.1388e-10
-5.30202e-10
5.65793e-10
-5.25128e-10
6.2219e-10
-5.14893e-10
6.84101e-10
-4.99282e-10
7.52761e-10
-4.78296e-10
-4.52265e-10
8.29542e-10
1.03906e-12
-5.09664e-11
5.54578e-12
-9.45099e-11
1.31557e-11
-1.35018e-10
2.36746e-11
-1.7535e-10
3.69536e-11
-2.15405e-10
5.28559e-11
-2.54901e-10
7.12572e-11
-2.93294e-10
9.2048e-11
-3.30115e-10
1.15135e-10
-3.65063e-10
1.40439e-10
-3.97952e-10
1.679e-10
-4.28644e-10
1.97473e-10
-4.57009e-10
2.29135e-10
-4.82911e-10
2.62887e-10
-5.06193e-10
2.98758e-10
-5.26675e-10
3.3682e-10
-5.44153e-10
3.772e-10
-5.58398e-10
4.20095e-10
-5.69154e-10
4.65796e-10
-5.76152e-10
5.14715e-10
-5.79121e-10
5.67404e-10
-5.77818e-10
6.24577e-10
-5.72066e-10
6.8711e-10
-5.61814e-10
7.56014e-10
-5.47201e-10
-5.28633e-10
8.32381e-10
9.73006e-13
-5.19389e-11
5.37401e-12
-9.89104e-11
1.28568e-11
-1.425e-10
2.32314e-11
-1.85725e-10
3.63505e-11
-2.28525e-10
5.20781e-11
-2.7063e-10
7.02923e-11
-3.11509e-10
9.08869e-11
-3.50711e-10
1.13772e-10
-3.8795e-10
1.38874e-10
-4.23056e-10
1.66139e-10
-4.5591e-10
1.95531e-10
-4.86402e-10
2.27036e-10
-5.14417e-10
2.60666e-10
-5.39823e-10
2.96465e-10
-5.62474e-10
3.34518e-10
-5.82207e-10
3.74965e-10
-5.98844e-10
4.18009e-10
-6.12198e-10
4.63937e-10
-6.22081e-10
5.13137e-10
-6.28321e-10
5.66108e-10
-6.30789e-10
6.23469e-10
-6.29427e-10
6.85955e-10
-6.243e-10
7.54388e-10
-6.15634e-10
-6.03878e-10
8.29632e-10
9.07703e-13
-5.2846e-11
5.19279e-12
-1.03195e-10
1.25277e-11
-1.49835e-10
2.27273e-11
-1.95924e-10
3.56457e-11
-2.41444e-10
5.11492e-11
-2.86134e-10
6.91184e-11
-3.29479e-10
8.94506e-11
-3.71044e-10
1.1206e-10
-4.10561e-10
1.3688e-10
-4.47877e-10
1.6386e-10
-4.82891e-10
1.92971e-10
-5.15515e-10
2.24207e-10
-5.45653e-10
2.57587e-10
-5.73204e-10
2.93165e-10
-5.98052e-10
3.31033e-10
-6.20075e-10
3.71331e-10
-6.39143e-10
4.1426e-10
-6.55128e-10
4.60091e-10
-6.67912e-10
5.09177e-10
-6.77407e-10
5.61957e-10
-6.83569e-10
6.1896e-10
-6.86431e-10
6.80794e-10
-6.86134e-10
7.48121e-10
-6.82962e-10
-6.77377e-10
8.2162e-10
8.44833e-13
-5.36903e-11
5.00631e-12
-1.07356e-10
1.21766e-11
-1.57005e-10
2.21753e-11
-2.05923e-10
3.48587e-11
-2.54128e-10
5.00949e-11
-3.01371e-10
6.77678e-11
-3.47153e-10
8.77784e-11
-3.91056e-10
1.10046e-10
-4.32829e-10
1.34506e-10
-4.72338e-10
1.61115e-10
-5.09501e-10
1.89848e-10
-5.44249e-10
2.20703e-10
-5.7651e-10
2.53705e-10
-6.06207e-10
2.8891e-10
-6.33258e-10
3.26409e-10
-6.57575e-10
3.6634e-10
-6.79073e-10
4.08889e-10
-6.97677e-10
4.54305e-10
-7.13328e-10
5.02897e-10
-7.26e-10
5.55046e-10
-7.35717e-10
6.11192e-10
-7.42577e-10
6.71832e-10
-7.46774e-10
7.37492e-10
-7.48622e-10
-7.48581e-10
8.08696e-10
7.83922e-13
-5.44735e-11
4.81716e-12
-1.11388e-10
1.18097e-11
-1.63997e-10
2.15859e-11
-2.15699e-10
3.40045e-11
-2.66547e-10
4.89359e-11
-3.16303e-10
6.6267e-11
-3.64486e-10
8.59024e-11
-4.10693e-10
1.07765e-10
-4.54693e-10
1.31795e-10
-4.96369e-10
1.5795e-10
-5.35658e-10
1.86211e-10
-5.7251e-10
2.16576e-10
-6.06876e-10
2.49071e-10
-6.38703e-10
2.83751e-10
-6.67937e-10
3.20701e-10
-6.94525e-10
3.60049e-10
-7.18421e-10
4.01962e-10
-7.39591e-10
4.46658e-10
-7.58024e-10
4.94405e-10
-7.73746e-10
5.45519e-10
-7.86831e-10
6.00362e-10
-7.97421e-10
6.5933e-10
-8.05742e-10
7.22831e-10
-8.12123e-10
-8.1701e-10
7.9126e-10
7.25843e-13
-5.51986e-11
4.62762e-12
-1.1529e-10
1.14316e-11
-1.70801e-10
2.09671e-11
-2.25235e-10
3.30954e-11
-2.78676e-10
4.76888e-11
-3.30898e-10
6.46375e-11
-3.81435e-10
8.38493e-11
-4.29906e-10
1.0525e-10
-4.76095e-10
1.28782e-10
-5.19903e-10
1.54407e-10
-5.61284e-10
1.82104e-10
-6.00208e-10
2.11873e-10
-6.36645e-10
2.43736e-10
-6.70567e-10
2.77743e-10
-7.01944e-10
3.1397e-10
-7.30753e-10
3.52529e-10
-7.5698e-10
3.93565e-10
-7.80627e-10
4.37261e-10
-8.01721e-10
4.83842e-10
-8.20327e-10
5.33563e-10
-8.36553e-10
5.86712e-10
-8.5057e-10
6.43594e-10
-8.62624e-10
7.04515e-10
-8.73044e-10
-8.82258e-10
7.69762e-10
6.71611e-13
-5.58695e-11
4.43908e-12
-1.19056e-10
1.10456e-11
-1.77407e-10
2.0325e-11
-2.34514e-10
3.21405e-11
-2.90491e-10
4.63671e-11
-3.45125e-10
6.28971e-11
-3.97967e-10
8.16413e-11
-4.48652e-10
1.02528e-10
-4.96983e-10
1.25501e-10
-5.42878e-10
1.50523e-10
-5.86307e-10
1.77571e-10
-6.27257e-10
2.06643e-10
-6.65718e-10
2.37756e-10
-7.01681e-10
2.7095e-10
-7.35139e-10
3.06291e-10
-7.66094e-10
3.4387e-10
-7.94559e-10
3.83808e-10
-8.20565e-10
4.26254e-10
-8.44167e-10
4.71385e-10
-8.65458e-10
5.19402e-10
-8.8457e-10
5.70523e-10
-9.01691e-10
6.24972e-10
-9.17073e-10
6.82967e-10
-9.31039e-10
-9.4399e-10
7.44699e-10
6.20921e-13
-5.64895e-11
4.25239e-12
-1.22687e-10
1.0654e-11
-1.83808e-10
1.96639e-11
-2.43524e-10
3.11476e-11
-3.01975e-10
4.49816e-11
-3.5896e-10
6.10609e-11
-4.14047e-10
7.92983e-11
-4.6689e-10
9.96235e-11
-5.1731e-10
1.21982e-10
-5.65238e-10
1.46333e-10
-6.10659e-10
1.72653e-10
-6.53578e-10
2.00935e-10
-6.94e-10
2.31188e-10
-7.31935e-10
2.63443e-10
-7.67395e-10
2.9775e-10
-8.00401e-10
3.34179e-10
-8.30989e-10
3.72825e-10
-8.59211e-10
4.13801e-10
-8.85144e-10
4.57241e-10
-9.08898e-10
5.03293e-10
-9.30621e-10
5.52111e-10
-9.50509e-10
6.03848e-10
-9.68811e-10
6.58643e-10
-9.85835e-10
-1.00195e-09
7.16604e-10
5.72765e-13
-5.70614e-11
4.06765e-12
-1.26181e-10
1.02585e-11
-1.89998e-10
1.89877e-11
-2.52253e-10
3.01226e-11
-3.13111e-10
4.3542e-11
-3.7238e-10
5.91422e-11
-4.29648e-10
7.6838e-11
-4.84587e-10
9.65596e-11
-5.37033e-10
1.18252e-10
-5.86931e-10
1.41872e-10
-6.34281e-10
1.67393e-10
-6.791e-10
1.94802e-10
-7.21409e-10
2.24099e-10
-7.61232e-10
2.55301e-10
-7.98598e-10
2.88443e-10
-8.33543e-10
3.23575e-10
-8.66121e-10
3.60762e-10
-8.96398e-10
4.00084e-10
-9.24467e-10
4.41635e-10
-9.50448e-10
4.85511e-10
-9.74497e-10
5.31811e-10
-9.96809e-10
5.80623e-10
-1.01762e-09
6.32018e-10
-1.03723e-09
-1.05596e-09
6.8603e-10
5.28237e-13
-5.75887e-11
3.88547e-12
-1.29537e-10
9.86027e-12
-1.95973e-10
1.82991e-11
-2.60692e-10
2.90712e-11
-3.23883e-10
4.20566e-11
-3.85366e-10
5.71534e-11
-4.44746e-10
7.42771e-11
-5.01712e-10
9.33582e-11
-5.56115e-10
1.1434e-10
-6.07914e-10
1.37177e-10
-6.5712e-10
1.61837e-10
-7.03762e-10
1.883e-10
-7.47873e-10
2.16556e-10
-7.89489e-10
2.46609e-10
-8.28651e-10
2.78476e-10
-8.65411e-10
3.12187e-10
-8.99831e-10
3.47779e-10
-9.3199e-10
3.85301e-10
-9.61989e-10
4.24805e-10
-9.89953e-10
4.66346e-10
-1.01604e-09
5.09971e-10
-1.04043e-09
5.55711e-10
-1.06336e-09
6.03575e-10
-1.08509e-09
-1.10592e-09
6.53536e-10
4.8672e-13
-5.80745e-11
3.70577e-12
-1.32755e-10
9.46038e-12
-2.01727e-10
1.76009e-11
-2.68832e-10
2.7998e-11
-3.34281e-10
4.05334e-11
-3.97902e-10
5.51061e-11
-4.5932e-10
7.16321e-11
-5.1824e-10
9.00414e-11
-5.74526e-10
1.10275e-10
-6.28149e-10
1.32284e-10
-6.7913e-10
1.56031e-10
-7.27509e-10
1.81486e-10
-7.73329e-10
2.08631e-10
-8.16634e-10
2.37456e-10
-8.57476e-10
2.67959e-10
-8.95915e-10
3.0015e-10
-9.32022e-10
3.34042e-10
-9.65881e-10
3.69652e-10
-9.97598e-10
4.06997e-10
-1.0273e-09
4.46092e-10
-1.05513e-09
4.86939e-10
-1.08128e-09
5.2952e-10
-1.10595e-09
5.73791e-10
-1.12937e-09
-1.15181e-09
6.19673e-10
4.47714e-13
-5.85212e-11
3.52864e-12
-1.35835e-10
9.05982e-12
-2.07257e-10
1.68954e-11
-2.76667e-10
2.6908e-11
-3.44293e-10
3.89802e-11
-4.09975e-10
5.3012e-11
-4.73353e-10
6.89194e-11
-5.34149e-10
8.66313e-11
-5.92239e-10
1.06086e-10
-6.47605e-10
1.27231e-10
-7.00277e-10
1.50022e-10
-7.50301e-10
1.74421e-10
-7.97729e-10
2.00399e-10
-8.42612e-10
2.27933e-10
-8.85011e-10
2.57006e-10
-9.24988e-10
2.87604e-10
-9.62621e-10
3.19719e-10
-9.97996e-10
3.5334e-10
-1.03122e-09
3.88454e-10
-1.06241e-09
4.25037e-10
-1.09172e-09
4.63054e-10
-1.1193e-09
5.02446e-10
-1.14534e-09
5.43124e-10
-1.17004e-09
-1.19365e-09
5.84964e-10
4.11161e-13
-5.89312e-11
3.35403e-12
-1.38777e-10
8.65948e-12
-2.12562e-10
1.61854e-11
-2.84193e-10
2.5806e-11
-3.53914e-10
3.74049e-11
-4.21575e-10
5.08828e-11
-4.86832e-10
6.61556e-11
-5.49423e-10
8.31504e-11
-6.09235e-10
1.01803e-10
-6.66259e-10
1.22056e-10
-7.20531e-10
1.43859e-10
-7.72105e-10
1.67166e-10
-8.21036e-10
1.91936e-10
-8.67384e-10
2.18135e-10
-9.11209e-10
2.45728e-10
-9.52582e-10
2.74686e-10
-9.91578e-10
3.04976e-10
-1.02829e-09
3.36565e-10
-1.06281e-09
3.6941e-10
-1.09526e-09
4.03458e-10
-1.12577e-09
4.3864e-10
-1.15448e-09
4.74863e-10
-1.18156e-09
5.12002e-10
-1.20718e-09
-1.23154e-09
5.49895e-10
3.76641e-13
-5.93067e-11
3.18217e-12
-1.41581e-10
8.26053e-12
-2.17639e-10
1.54735e-11
-2.91405e-10
2.4697e-11
-3.63138e-10
3.58157e-11
-4.32694e-10
4.87307e-11
-4.99748e-10
6.33574e-11
-5.64051e-10
7.96214e-11
-6.255e-10
9.74553e-11
-6.84094e-10
1.16797e-10
-7.39874e-10
1.3759e-10
-7.92898e-10
1.5978e-10
-8.43227e-10
1.83316e-10
-8.90921e-10
2.08151e-10
-9.36045e-10
2.34238e-10
-9.78669e-10
2.61529e-10
-1.01887e-09
2.89973e-10
-1.05673e-09
3.19514e-10
-1.09235e-09
3.50087e-10
-1.12583e-09
3.81614e-10
-1.15729e-09
4.13997e-10
-1.18686e-09
4.47114e-10
-1.21468e-09
4.80814e-10
-1.24088e-09
-1.26563e-09
5.14908e-10
3.44189e-13
-5.96498e-11
3.01321e-12
-1.44249e-10