/*--------------------------------*- C++ -*----------------------------------*\
  =========                 |
  \\      /  F ield         | OpenFOAM: The Open Source CFD Toolbox
   \\    /   O peration     | Website:  https://openfoam.org
    \\  /    A nd           | Version:  13
     \\/     M anipulation  |
\*---------------------------------------------------------------------------*/
FoamFile
{
    format      ascii;
    class       volVectorField;
    location    "14";
    object      U;
}
// * * * * * * * * * * * * * * * * * * * * * * * * * * * * * * * * * * * * * //

dimensions      [0 1 -1 0 0 0 0];

internalField   nonuniform List<vector> 
6440
(
(-0.00207282 -0.00295448 0)
(-0.0133407 -0.000788298 0)
(-0.0309287 0.00540802 -1.35695e-15)
(-0.0562501 0.0148596 1.11353e-15)
(-0.093691 0.0232377 0)
(-0.149946 0.0299904 -1.4365e-15)
(-0.223706 0.0377248 1.13199e-15)
(-0.304326 0.0482494 0)
(-0.379519 0.0604777 0)
(-0.438909 0.0679532 0)
(-0.47897 0.0656113 1.07416e-15)
(-0.501428 0.0558892 -2.01362e-15)
(-0.505327 0.0226645 9.98453e-16)
(-0.491736 -0.0142084 0)
(-0.464614 -0.0440357 -2.08512e-15)
(-0.423137 -0.0684064 2.29726e-15)
(-0.359639 -0.0794264 0)
(-0.278582 -0.0729377 0)
(-0.195533 -0.0565737 0)
(-0.128302 -0.0370384 0)
(-0.0847151 -0.0245367 -8.42919e-15)
(-0.0636952 -0.0196509 2.00678e-14)
(-0.054682 -0.0227962 -1.08172e-14)
(-0.0437394 -0.0290146 -1.10627e-14)
(-0.0185868 -0.0220907 9.98031e-15)
(-0.00977002 0.0134253 0)
(-0.0428016 0.0338453 0)
(-0.084515 0.0543443 -8.81155e-16)
(-0.136033 0.0711368 6.93575e-16)
(-0.196385 0.0845035 0)
(-0.264409 0.0994911 -9.04212e-16)
(-0.33631 0.120653 1.4757e-15)
(-0.406756 0.144588 -6.09964e-16)
(-0.468104 0.157268 0)
(-0.513616 0.142277 0)
(-0.542015 0.0946699 0)
(-0.549836 0.0238238 -9.21947e-16)
(-0.544404 -0.058124 9.7277e-16)
(-0.533147 -0.14083 9.55764e-16)
(-0.505869 -0.208613 -9.95644e-16)
(-0.435189 -0.248959 0)
(-0.365303 -0.250677 0)
(-0.288019 -0.215125 0)
(-0.218567 -0.153082 0)
(-0.15627 -0.0893794 0)
(-0.115793 -0.0472848 -1.0424e-14)
(-0.0985592 -0.0353153 1.20462e-14)
(-0.0961382 -0.0489958 0)
(-0.0829244 -0.0712533 -9.93069e-15)
(-0.0342949 -0.0539593 1.79999e-14)
(-0.0154636 0.0539648 0)
(-0.0586449 0.0852738 0)
(-0.107465 0.102311 0)
(-0.160832 0.116905 0)
(-0.214632 0.134926 0)
(-0.266097 0.160988 0)
(-0.31396 0.194184 6.89042e-16)
(-0.355411 0.223126 -5.91026e-16)
(-0.385846 0.227479 0)
(-0.403037 0.187964 0)
(-0.404545 0.0996014 0)
(-0.397076 -0.0257857 0)
(-0.389393 -0.162294 0)
(-0.382616 -0.274533 1.21836e-15)
(-0.374134 -0.349695 -3.68523e-15)
(-0.349924 -0.373934 2.6503e-15)
(-0.305281 -0.337473 0)
(-0.261349 -0.25812 0)
(-0.218912 -0.143687 0)
(-0.171928 -0.0468394 0)
(-0.144658 -0.00360442 0)
(-0.141505 -0.018523 0)
(-0.150705 -0.0726298 8.52674e-15)
(-0.13484 -0.131447 -7.28777e-15)
(-0.0590922 -0.101425 7.23136e-15)
(-0.0158741 0.101767 0)
(-0.0615256 0.131572 0)
(-0.114137 0.136298 -5.81215e-16)
(-0.164837 0.144278 5.11503e-16)
(-0.200313 0.165571 0)
(-0.226655 0.201186 -8.38727e-16)
(-0.235716 0.242647 7.59454e-16)
(-0.234878 0.270888 0)
(-0.229104 0.264389 1.31646e-15)
(-0.224302 0.187204 -1.33431e-15)
(-0.215946 0.0195999 1.56826e-15)
(-0.215214 -0.171845 -4.39752e-15)
(-0.221856 -0.319117 1.94188e-15)
(-0.232364 -0.407734 0)
(-0.262967 -0.45588 0)
(-0.277321 -0.433955 0)
(-0.292777 -0.358373 3.56409e-15)
(-0.267006 -0.227061 3.01297e-19)
(-0.232929 -0.0814802 -5.44614e-15)
(-0.21162 0.00527298 0)
(-0.202523 -0.00421098 0)
(-0.21085 -0.0481933 6.06588e-15)
(-0.221858 -0.156235 -6.1134e-15)
(-0.188427 -0.233766 -5.55843e-15)
(-0.0780463 -0.151355 1.23885e-14)
(-0.0139324 0.138425 0)
(-0.0559905 0.174373 0)
(-0.0988949 0.180543 -5.93324e-16)
(-0.138495 0.194143 5.73508e-16)
(-0.164857 0.216237 0)
(-0.169 0.240567 -1.12466e-15)
(-0.15713 0.264701 1.07471e-15)
(-0.131227 0.279666 0)
(-0.0930114 0.259858 2.04919e-15)
(-0.0706152 0.180347 -2.26843e-15)
(-0.0709583 -0.0313885 3.23207e-15)
(-0.133264 -0.323112 -1.51076e-14)
(-0.125671 -0.392154 2.95649e-15)
(-0.179481 -0.463547 0)
(-0.233502 -0.476448 3.00356e-15)
(-0.287958 -0.420297 -3.08378e-15)
(-0.31975 -0.269979 3.68187e-15)
(-0.312731 -0.122039 2.10192e-19)
(-0.296472 -0.0205643 -4.11883e-15)
(-0.280638 -0.0284516 0)
(-0.279493 -0.0621502 4.36512e-15)
(-0.283378 -0.159631 5.21659e-21)
(-0.265178 -0.28826 -4.7844e-15)
(-0.201983 -0.316899 -4.68694e-15)
(-0.07951 -0.175105 5.88049e-15)
(-0.0151276 0.175172 0)
(-0.0332343 0.233224 0)
(-0.0120971 0.24779 -6.75261e-16)
(0.0475909 0.261029 4.88854e-16)
(0.107376 0.27731 0)
(0.145552 0.29236 -6.30897e-16)
(0.147799 0.31216 5.7943e-16)
(0.127845 0.318166 0)
(0.106896 0.292384 1.22099e-15)
(0.0947322 0.215321 -1.37606e-15)
(0.0772501 0.0589221 1.76153e-15)
(0.00797757 -0.15168 -5.689e-15)
(-0.085035 -0.340686 1.96261e-15)
(-0.204776 -0.42809 0)
(-0.310736 -0.392883 -3.45983e-15)
(-0.367292 -0.243916 3.46668e-15)
(-0.383065 -0.131754 3.08337e-15)
(-0.374836 -0.0764305 3.73248e-20)
(-0.365192 -0.0960315 -3.0508e-15)
(-0.360242 -0.140893 0)
(-0.351973 -0.219466 -3.60132e-15)
(-0.320513 -0.326451 7.92751e-15)
(-0.263499 -0.373975 -4.17366e-15)
(-0.195472 -0.326261 -4.48011e-15)
(-0.0852078 -0.177108 5.95099e-15)
(-0.00266677 0.255104 0)
(0.0953232 0.269731 0)
(0.289105 0.181332 -3.12344e-16)
(0.435881 0.13358 2.49097e-16)
(0.541905 0.17144 0)
(0.541481 0.255224 -4.04499e-16)
(0.50564 0.346651 3.79564e-16)
(0.422188 0.401365 0)
(0.317614 0.392449 8.62322e-16)
(0.219359 0.310843 -1.05155e-15)
(0.122027 0.157935 1.44919e-15)
(-0.00704899 -0.061324 -5.31046e-15)
(-0.201414 -0.26909 2.95739e-15)
(-0.34353 -0.266457 0)
(-0.405184 -0.176023 0)
(-0.434805 -0.117134 0)
(-0.4488 -0.128146 2.46699e-15)
(-0.45864 -0.148355 -5.87815e-20)
(-0.456288 -0.200707 -2.55898e-15)
(-0.434535 -0.269519 0)
(-0.390529 -0.350014 0)
(-0.334382 -0.387221 3.39127e-15)
(-0.278865 -0.376654 -3.71682e-15)
(-0.217718 -0.329312 -4.16477e-15)
(-0.101374 -0.179834 5.88439e-15)
(0.0692644 0.197048 0)
(0.29294 -0.0445198 0)
(0.456981 -0.158012 -2.14795e-16)
(0.566123 -0.105632 2.12663e-16)
(0.581739 0.0430994 0)
(0.550534 0.222692 -4.37059e-16)
(0.492911 0.387572 3.994e-16)
(0.402719 0.491039 0)
(0.289807 0.502112 8.82235e-16)
(0.170324 0.417424 -1.10389e-15)
(0.0458141 0.252474 1.62277e-15)
(-0.128293 0.0232273 -5.5108e-15)
(-0.337105 -0.0776722 2.53618e-15)
(-0.418396 -0.0510301 0)
(-0.46916 -0.0539668 0)
(-0.523981 -0.0924298 0)
(-0.554084 -0.140019 2.14208e-15)
(-0.56032 -0.199017 -1.0337e-19)
(-0.545086 -0.273456 -2.13748e-15)
(-0.509706 -0.346906 0)
(-0.461028 -0.392985 0)
(-0.406766 -0.404897 2.57339e-15)
(-0.347066 -0.398328 -2.82239e-15)
(-0.268399 -0.365007 -3.29338e-15)
(-0.121788 -0.230711 9.51305e-15)
(0.123105 -0.191347 0)
(0.277144 -0.373769 0)
(0.347007 -0.331746 0)
(0.374879 -0.173749 0)
(0.363535 0.0369732 8.48576e-16)
(0.323112 0.260416 -6.63352e-16)
(0.260778 0.457853 5.57261e-16)
(0.175631 0.584041 -5.32659e-16)
(0.0761848 0.595862 1.06993e-15)
(-0.0399698 0.500806 6.56255e-19)
(-0.170496 0.332368 3.9074e-19)
(-0.328188 0.170356 -1.17873e-15)
(-0.456205 0.10923 -1.11822e-15)
(-0.529141 0.076978 2.01006e-15)
(-0.594748 0.0078652 -2.84833e-15)
(-0.643102 -0.07105 1.91256e-15)
(-0.665903 -0.151138 0)
(-0.670649 -0.234784 1.7372e-15)
(-0.661849 -0.316072 -1.71116e-15)
(-0.637084 -0.383102 1.71221e-15)
(-0.592155 -0.42855 -7.98886e-21)
(-0.527489 -0.45681 4.42099e-20)
(-0.447255 -0.478947 -2.11404e-15)
(-0.340029 -0.467977 0)
(-0.15303 -0.336575 -3.66187e-15)
(0.0871007 -0.426674 0)
(0.150648 -0.465571 0)
(0.140909 -0.327095 0)
(0.157042 -0.0960669 0)
(0.150867 0.115115 -1.56436e-15)
(0.0287132 0.34761 7.12132e-16)
(-0.062429 0.553447 -4.58318e-16)
(-0.135614 0.674063 3.68398e-16)
(-0.202986 0.687387 0)
(-0.290811 0.569062 -6.90569e-16)
(-0.396361 0.425641 -1.48798e-19)
(-0.513531 0.317384 7.37884e-16)
(-0.608748 0.24388 0)
(-0.682992 0.148664 -7.01801e-16)
(-0.741668 0.0368199 2.16595e-15)
(-0.77705 -0.068186 -1.5561e-15)
(-0.79461 -0.164346 1.48766e-15)
(-0.802831 -0.257732 -1.39673e-15)
(-0.801081 -0.351378 0)
(-0.780511 -0.440321 -1.31451e-15)
(-0.733543 -0.518071 2.67692e-15)
(-0.660851 -0.580464 -2.87024e-15)
(-0.561031 -0.621956 1.63209e-15)
(-0.424221 -0.609545 0)
(-0.19067 -0.456968 -2.85288e-15)
(0.0388037 -0.507358 0)
(0.0251387 -0.43702 0)
(-0.0377819 -0.229337 0)
(-0.0936147 0.0137132 0)
(-0.170689 0.235598 5.86121e-16)
(-0.272218 0.458741 -3.97076e-16)
(-0.33405 0.637855 3.1453e-16)
(-0.36922 0.710547 -2.82701e-16)
(-0.400957 0.708204 5.5093e-16)
(-0.460445 0.607896 1.61076e-19)
(-0.554237 0.504816 -5.7153e-16)
(-0.664943 0.41994 0)
(-0.761809 0.324889 -5.49485e-16)
(-0.836575 0.202722 1.11069e-15)
(-0.883051 0.0720943 -1.75685e-15)
(-0.900321 -0.0516796 1.28648e-15)
(-0.897999 -0.169071 0)
(-0.890814 -0.288915 1.14269e-15)
(-0.881509 -0.4104 -1.10418e-15)
(-0.86622 -0.52667 1.09119e-15)
(-0.82763 -0.629944 1.13857e-19)
(-0.756196 -0.714087 -1.17014e-15)
(-0.648247 -0.7675 0)
(-0.497628 -0.750361 0)
(-0.227179 -0.5847 0)
(0.00561961 -0.447493 0)
(-0.0726375 -0.329758 0)
(-0.183855 -0.107809 3.67954e-16)
(-0.279905 0.122262 -3.06917e-16)
(-0.365669 0.336409 0)
(-0.429575 0.527539 3.13025e-16)
(-0.460403 0.662885 -5.37223e-16)
(-0.480684 0.719239 2.47568e-16)
(-0.521826 0.717365 0)
(-0.60592 0.669229 0)
(-0.724055 0.614867 0)
(-0.839643 0.539698 4.26935e-16)
(-0.92484 0.427736 -4.29404e-16)
(-0.968375 0.282378 -4.51759e-16)
(-0.964265 0.118902 -4.99459e-16)
(-0.931623 -0.0465826 1.131e-15)
(-0.8944 -0.205633 1.07388e-15)
(-0.870888 -0.354345 -1.03132e-15)
(-0.851168 -0.487677 0)
(-0.83668 -0.605607 0)
(-0.806899 -0.71095 1.01508e-15)
(-0.747588 -0.805509 -1.0426e-15)
(-0.660086 -0.87517 0)
(-0.539211 -0.869914 1.2835e-15)
(-0.260064 -0.717295 -3.50994e-15)
(-0.0156084 -0.27927 0)
(-0.138341 -0.1702 0)
(-0.266316 0.0300221 -3.3049e-16)
(-0.380737 0.235378 2.14644e-16)
(-0.474824 0.428651 3.11942e-16)
(-0.547933 0.592944 -5.01522e-16)
(-0.613634 0.712907 4.28973e-16)
(-0.695077 0.783365 -1.91031e-16)
(-0.803028 0.808413 0)
(-0.922187 0.789537 3.33431e-16)
(-1.02051 0.728355 -3.28382e-16)
(-1.07251 0.619188 -3.37955e-16)
(-1.07512 0.464617 -1.27888e-20)
(-1.0089 0.276606 8.38195e-16)
(-0.926757 0.0712699 -1.52698e-15)
(-0.843603 -0.127499 1.11236e-15)
(-0.781106 -0.30684 0)
(-0.735594 -0.461673 0)
(-0.706015 -0.585758 0)
(-0.687142 -0.680133 1.04772e-15)
(-0.660901 -0.757318 -1.0502e-15)
(-0.613405 -0.836792 0)
(-0.567907 -0.915837 0)
(-0.531547 -0.944899 -1.15091e-15)
(-0.28002 -0.831024 -3.6727e-19)
(-0.0573 -0.105773 0)
(-0.223244 0.024886 0)
(-0.378245 0.206204 2.3127e-16)
(-0.515993 0.392702 -1.55545e-16)
(-0.642374 0.570567 -2.37371e-16)
(-0.763609 0.726796 3.88678e-16)
(-0.887326 0.847629 -3.34968e-16)
(-1.00673 0.917572 1.5163e-16)
(-1.09781 0.926189 0)
(-1.14758 0.865609 -2.90484e-16)
(-1.14699 0.74985 3.05696e-16)
(-1.09379 0.580949 3.38077e-16)
(-1.0145 0.371078 -3.96415e-16)
(-0.903771 0.14334 -4.97578e-16)
(-0.796702 -0.0752669 -5.9737e-16)
(-0.709563 -0.268797 1.19719e-15)
(-0.630942 -0.440907 1.18189e-15)
(-0.567685 -0.585723 -1.17496e-15)
(-0.523347 -0.696121 0)
(-0.494658 -0.76856 -1.18458e-15)
(-0.46883 -0.808173 2.387e-15)
(-0.418701 -0.843676 -1.17472e-15)
(-0.399811 -0.91004 0)
(-0.477754 -0.966354 1.13385e-15)
(-0.275426 -0.899199 -1.30778e-15)
(-0.112354 0.0948733 2.71531e-16)
(-0.310063 0.242894 1.344e-16)
(-0.48364 0.410578 -1.67748e-16)
(-0.646777 0.584029 2.44976e-16)
(-0.799861 0.751259 -1.20566e-19)
(-0.941248 0.894216 -1.63923e-16)
(-1.06049 0.987764 1.46205e-16)
(-1.1303 1.00852 1.38531e-16)
(-1.15171 0.950815 -2.79142e-16)
(-1.14745 0.82805 2.95492e-16)
(-1.08855 0.649252 -3.29196e-16)
(-0.986534 0.426991 0)
(-0.871158 0.182103 -4.95058e-16)
(-0.759551 -0.0538303 1.25754e-15)
(-0.661739 -0.253998 -6.50791e-16)
(-0.567174 -0.427176 1.28539e-15)
(-0.479908 -0.574956 -1.28896e-15)
(-0.405458 -0.693253 0)
(-0.346718 -0.782499 0)
(-0.305233 -0.84264 1.36245e-15)
(-0.282548 -0.871057 1.35077e-18)
(-0.240426 -0.876913 -1.3914e-15)
(-0.231487 -0.904247 0)
(-0.348829 -0.94982 0)
(-0.242664 -0.917387 -1.28152e-15)
(-0.13991 0.306729 0)
(-0.346588 0.467182 0)
(-0.529287 0.620979 0)
(-0.701291 0.781772 0)
(-0.85658 0.931728 0)
(-0.986592 1.04182 0)
(-1.07466 1.07919 0)
(-1.1084 1.02751 0)
(-1.09369 0.895339 2.95455e-16)
(-1.03325 0.715545 -3.29937e-16)
(-0.937188 0.492835 0)
(-0.824945 0.240088 0)
(-0.709688 -0.0183948 0)
(-0.602418 -0.245942 0)
(-0.495778 -0.437715 0)
(-0.391353 -0.595953 0)
(-0.296624 -0.716137 -1.45279e-15)
(-0.216455 -0.80035 3.01824e-15)
(-0.152895 -0.85556 -2.87921e-15)
(-0.105988 -0.89063 1.28617e-15)
(-0.0844672 -0.907927 1.20227e-15)
(-0.0656194 -0.908095 -1.15696e-15)
(-0.0873546 -0.909229 -1.14845e-15)
(-0.20479 -0.935158 1.17701e-15)
(-0.174153 -0.890253 -1.2842e-15)
(-0.142451 0.549897 0)
(-0.330871 0.67819 0)
(-0.505846 0.818 1.21957e-16)
(-0.667283 0.96448 -9.77684e-17)
(-0.804642 1.08929 0)
(-0.909794 1.15128 1.49112e-16)
(-0.968517 1.1176 -2.88132e-16)
(-0.970542 0.99176 1.50531e-16)
(-0.927202 0.803104 3.36121e-16)
(-0.853903 0.58683 -3.92464e-16)
(-0.759769 0.336172 -4.9015e-16)
(-0.648219 0.0552485 1.3793e-15)
(-0.533791 -0.213091 -8.37952e-16)
(-0.420546 -0.436726 -7.93379e-16)
(-0.306266 -0.619284 -7.92083e-16)
(-0.193211 -0.754965 1.58646e-15)
(-0.093105 -0.846625 0)
(-0.00940494 -0.902915 1.16917e-15)
(0.0573853 -0.930286 -1.04734e-15)
(0.104881 -0.935259 0)
(0.126917 -0.923015 9.65042e-16)
(0.129847 -0.910143 -1.94791e-15)
(0.0785055 -0.874835 1.02917e-15)
(-0.0298342 -0.833015 1.137e-15)
(-0.0292758 -0.808206 -2.77574e-15)
(-0.121688 0.746631 9.43644e-17)
(-0.280241 0.860851 7.17324e-17)
(-0.434071 0.987504 -1.13841e-16)
(-0.571277 1.11754 1.88422e-16)
(-0.683507 1.20846 -3.28735e-16)
(-0.764144 1.21885 1.52969e-16)
(-0.799377 1.12588 0)
(-0.782004 0.92599 3.39117e-16)
(-0.732506 0.702943 -3.96984e-16)
(-0.663781 0.460745 -4.89986e-16)
(-0.568045 0.172767 6.72328e-16)
(-0.450851 -0.145073 0)
(-0.330979 -0.415655 9.33234e-16)
(-0.220038 -0.630573 -8.94266e-16)
(-0.1006 -0.788601 1.49532e-15)
(0.0138694 -0.89809 1.20946e-18)
(0.118602 -0.964858 -1.92526e-15)
(0.207892 -0.995251 8.64654e-16)
(0.277882 -0.994048 -8.16002e-16)
(0.325039 -0.96667 -9.88541e-19)
(0.343774 -0.91691 1.61813e-15)
(0.338857 -0.850141 -8.51333e-16)
(0.268736 -0.76109 0)
(0.188139 -0.673156 0)
(0.121924 -0.49304 0)
(-0.0904233 0.879023 0)
(-0.216433 1.00617 0)
(-0.341428 1.12266 0)
(-0.452169 1.23534 0)
(-0.53925 1.29582 0)
(-0.596156 1.28543 0)
(-0.610895 1.10555 -1.68289e-16)
(-0.584351 0.857043 1.96425e-16)
(-0.537218 0.603457 4.88933e-16)
(-0.467614 0.323867 -6.58681e-16)
(-0.367277 -0.0244852 -1.13514e-15)
(-0.23485 -0.376196 1.20405e-15)
(-0.123512 -0.630704 0)
(-0.0136531 -0.823123 -6.54244e-16)
(0.102476 -0.956975 4.86831e-16)
(0.216142 -1.03824 0)
(0.319445 -1.07549 0)
(0.408116 -1.07418 6.89173e-16)
(0.478815 -1.03909 -1.34182e-15)
(0.527903 -0.974288 6.75185e-16)
(0.55126 -0.88206 7.04127e-16)
(0.551743 -0.762792 -1.53097e-15)
(0.48659 -0.602822 8.90308e-16)
(0.469086 -0.424272 0)
(0.291381 -0.136378 -2.21903e-15)
(-0.0607222 0.968647 0)
(-0.156049 1.11488 0)
(-0.251915 1.22565 1.05615e-16)
(-0.334445 1.32418 -9.25457e-17)
(-0.39337 1.35895 0)
(-0.424794 1.2785 1.70845e-16)
(-0.42282 1.05556 -3.77852e-16)
(-0.394439 0.763124 2.34095e-16)
(-0.350566 0.470021 6.37796e-16)
(-0.280972 0.127911 -1.00545e-15)
(-0.168264 -0.298403 0)
(-0.0264822 -0.610046 1.00625e-15)
(0.0645394 -0.845969 -5.95338e-16)
(0.162527 -1.0118 -4.36732e-16)
(0.267553 -1.11556 -3.63885e-16)
(0.36773 -1.16658 6.481e-16)
(0.459333 -1.17292 0)
(0.541711 -1.14084 5.87056e-16)
(0.613614 -1.07529 -5.83772e-16)
(0.672198 -0.978491 0)
(0.715896 -0.850307 0)
(0.745304 -0.684937 0)
(0.728102 -0.456115 0)
(0.810482 -0.167807 1.17736e-15)
(0.367013 0.695022 -2.88821e-15)
(-0.034955 1.02556 0)
(-0.104183 1.19196 0)
(-0.17297 1.30041 0)
(-0.229271 1.38747 0)
(-0.260415 1.39277 0)
(-0.270462 1.28057 0)
(-0.258531 1.02405 0)
(-0.226948 0.68456 0)
(-0.184496 0.331395 0)
(-0.120051 -0.0841623 0)
(0.0269015 -0.528789 0)
(0.128454 -0.808835 0)
(0.190043 -1.01517 0)
(0.264183 -1.15748 0)
(0.345044 -1.24112 0)
(0.42314 -1.27256 0)
(0.498882 -1.25982 0)
(0.574461 -1.21119 0)
(0.64945 -1.13188 0)
(0.723811 -1.02406 0)
(0.799379 -0.88592 0)
(0.882739 -0.711925 0)
(0.979985 -0.483352 0)
(1.20411 -0.227931 0)
(1.44431 0.432533 0)
(-0.0158422 1.05818 0)
(-0.0639855 1.24375 0)
(-0.109678 1.34637 0)
(-0.140284 1.41111 0)
(-0.148012 1.39453 0)
(-0.141105 1.27568 0)
(-0.117766 1.00381 0)
(-0.0808122 0.631609 0)
(-0.038635 0.229596 0)
(0.0139525 -0.219947 0)
(0.149155 -0.602303 0)
(0.192311 -0.875086 0)
(0.21745 -1.07331 0)
(0.263216 -1.2162 0)
(0.324593 -1.30297 0)
(0.389844 -1.33542 0)
(0.457654 -1.32264 0)
(0.529913 -1.27529 0)
(0.608155 -1.2004 0)
(0.69433 -1.10062 0)
(0.793304 -0.975355 0)
(0.91329 -0.822291 0)
(1.0733 -0.640782 0)
(1.2813 -0.440337 0)
(1.61621 -0.204387 0)
(-0.00453959 1.0763 0)
(-0.0348153 1.27764 0)
(-0.061368 1.37104 0)
(-0.0732812 1.41495 0)
(-0.0657618 1.38791 0)
(-0.043869 1.25918 0)
(-0.00708709 0.984942 0)
(0.0395661 0.602463 0)
(0.0865573 0.174535 0)
(0.131637 -0.26322 0)
(0.18567 -0.636419 0)
(0.169761 -0.89287 0)
(0.167854 -1.10591 0)
(0.213936 -1.27078 0)
(0.27817 -1.3683 0)
(0.344403 -1.40359 0)
(0.41108 -1.39281 0)
(0.481372 -1.35021 0)
(0.558532 -1.28423 0)
(0.6461 -1.19824 0)
(0.749459 -1.09282 0)
(0.876494 -0.969044 0)
(1.03749 -0.830512 0)
(1.23711 -0.694158 0)
(1.48908 -0.574353 0)
(0.00234301 1.08589 0)
(-0.0153314 1.29868 0)
(-0.0300043 1.38185 0)
(-0.0297966 1.41501 0)
(-0.0135453 1.37275 0)
(0.0153734 1.23025 0)
(0.0578878 0.959876 0)
(0.10428 0.58426 0)
(0.143628 0.159961 0)
(0.167893 -0.245847 0)
(0.123144 -0.589124 0)
(0.0799267 -0.864251 0)
(0.108665 -1.12774 0)
(0.178576 -1.32318 0)
(0.255602 -1.4295 0)
(0.329226 -1.4676 0)
(0.400804 -1.46091 0)
(0.47387 -1.42521 0)
(0.551461 -1.36942 0)
(0.636708 -1.29784 0)
(0.733928 -1.21268 0)
(0.848896 -1.11621 0)
(0.987887 -1.01302 0)
(1.1535 -0.912702 0)
(1.34485 -0.825507 0)
(0.00729157 1.09188 0)
(-0.00591404 1.31421 0)
(-0.0141846 1.38617 0)
(-0.00911469 1.40707 0)
(0.00884728 1.3517 0)
(0.0368222 1.20117 0)
(0.0732396 0.937295 0)
(0.107378 0.578131 0)
(0.130202 0.179788 0)
(0.106167 -0.181628 0)
(0.00988838 -0.511143 0)
(0.00739057 -0.854019 0)
(0.0739245 -1.17713 0)
(0.161629 -1.39373 0)
(0.249846 -1.50395 0)
(0.334742 -1.54373 0)
(0.417907 -1.53983 0)
(0.500958 -1.508 0)
(0.585212 -1.45759 0)
(0.672397 -1.39433 0)
(0.765399 -1.32185 0)
(0.868058 -1.24306 0)
(0.984272 -1.16131 0)
(1.11581 -1.08156 0)
(1.26068 -1.00879 0)
(0.00737293 1.09899 0)
(-0.00433735 1.33082 0)
(-0.0114064 1.39127 0)
(-0.00673362 1.40096 0)
(0.00733663 1.33631 0)
(0.0260099 1.18287 0)
(0.0474897 0.928467 0)
(0.0619388 0.591309 0)
(0.068077 0.230104 0)
(0.0242836 -0.0712474 0)
(-0.085838 -0.447678 0)
(-0.0418534 -0.882366 0)
(0.0362195 -1.24664 0)
(0.131884 -1.47812 0)
(0.231597 -1.59235 0)
(0.330843 -1.63397 0)
(0.429036 -1.63099 0)
(0.525834 -1.59937 0)
(0.621306 -1.54947 0)
(0.716154 -1.48829 0)
(0.811909 -1.42039 0)
(0.910878 -1.34892 0)
(1.01523 -1.27656 0)
(1.12573 -1.20593 0)
(1.24111 -1.1391 0)
(0.00477932 1.1076 0)
(-0.00725387 1.34792 0)
(-0.0153781 1.39937 0)
(-0.0149336 1.40227 0)
(-0.00930738 1.33377 0)
(-0.00605204 1.18554 0)
(-0.00670355 0.950277 0)
(-0.0158453 0.642521 0)
(-0.032296 0.303233 0)
(-0.0886377 -0.0165506 0)
(-0.145643 -0.424102 0)
(-0.0993029 -0.921261 0)
(-0.0173041 -1.32483 0)
(0.0888108 -1.57594 0)
(0.202324 -1.69655 0)
(0.316151 -1.73993 0)
(0.428223 -1.73621 0)
(0.537352 -1.70256 0)
(0.643175 -1.65049 0)
(0.746252 -1.58785 0)
(0.847793 -1.51971 0)
(0.949016 -1.44926 0)
(1.05092 -1.37869 0)
(1.15376 -1.30957 0)
(1.25645 -1.24266 0)
(0.00172694 1.11889 0)
(-0.0117226 1.36529 0)
(-0.0224479 1.41323 0)
(-0.0270211 1.41284 0)
(-0.0346452 1.34948 0)
(-0.0528738 1.2137 0)
(-0.0798243 1.00016 0)
(-0.118052 0.715466 0)
(-0.162781 0.410803 0)
(-0.20328 0.0952705 0)
(-0.229022 -0.402081 0)
(-0.167927 -0.967656 0)
(-0.0695444 -1.4131 0)
(0.051279 -1.68826 0)
(0.179502 -1.81505 0)
(0.306723 -1.85874 0)
(0.430033 -1.85253 0)
(0.548054 -1.8153 0)
(0.660806 -1.75972 0)
(0.769273 -1.69422 0)
(0.874787 -1.6241 0)
(0.978515 -1.55235 0)
(1.08108 -1.48062 0)
(1.18242 -1.40984 0)
(1.28194 -1.3402 0)
(-0.00133118 1.13616 0)
(-0.019679 1.38781 0)
(-0.0335746 1.435 0)
(-0.0440836 1.43969 0)
(-0.0639056 1.38624 0)
(-0.0934 1.26717 0)
(-0.146434 1.07923 0)
(-0.236725 0.838286 0)
(-0.31192 0.568475 0)
(-0.331511 0.189653 0)
(-0.324453 -0.410933 0)
(-0.237574 -1.03546 0)
(-0.114945 -1.52109 0)
(0.0261141 -1.81746 0)
(0.170171 -1.948 0)
(0.310267 -1.98914 0)
(0.443352 -1.97761 0)
(0.568238 -1.93437 0)
(0.685458 -1.87346 0)
(0.796605 -1.80394 0)
(0.903651 -1.73104 0)
(1.00811 -1.65738 0)
(1.11086 -1.58402 0)
(1.21219 -1.5112 0)
(1.31167 -1.43854 0)
(-0.00552659 1.16299 0)
(-0.0279413 1.4203 0)
(-0.0405905 1.47103 0)
(-0.0545533 1.47685 0)
(-0.0650927 1.42836 0)
(-0.0994789 1.33348 0)
(-0.206506 1.19624 0)
(-0.356059 1.01258 0)
(-0.441976 0.730788 0)
(-0.446651 0.262264 0)
(-0.411966 -0.436426 0)
(-0.297539 -1.12758 0)
(-0.146447 -1.65485 0)
(0.0166471 -1.96604 0)
(0.176342 -2.09614 0)
(0.3282 -2.13087 0)
(0.469506 -2.11039 0)
(0.599574 -2.05802 0)
(0.719643 -1.98941 0)
(0.832031 -1.91421 0)
(0.939244 -1.83756 0)
(1.04338 -1.7616 0)
(1.14575 -1.68673 0)
(1.24702 -1.61244 0)
(1.34733 -1.5377 0)
(-0.0123445 1.19061 0)
(-0.0278291 1.45096 0)
(-0.0348233 1.50341 0)
(-0.0346882 1.50087 0)
(-0.0286427 1.46966 0)
(-0.096772 1.43157 0)
(-0.266194 1.36212 0)
(-0.441753 1.20104 0)
(-0.526555 0.872708 0)
(-0.525058 0.323729 0)
(-0.468904 -0.466479 0)
(-0.32591 -1.23572 0)
(-0.149756 -1.81051 0)
(0.031554 -2.13305 0)
(0.203682 -2.25725 0)
(0.363782 -2.28168 0)
(0.509995 -2.24896 0)
(0.642446 -2.18474 0)
(0.763158 -2.10636 0)
(0.875155 -2.0241 0)
(0.981519 -1.94295 0)
(1.0847 -1.86451 0)
(1.18646 -1.78844 0)
(1.28795 -1.71346 0)
(1.38958 -1.63796 0)
(-0.0108603 1.19531 0)
(-0.0159084 1.45577 0)
(0.00224013 1.50337 0)
(0.011217 1.52061 0)
(-0.00430513 1.55105 0)
(-0.126792 1.57872 0)
(-0.315248 1.53943 0)
(-0.479519 1.36224 0)
(-0.566328 0.994931 0)
(-0.544671 0.388582 0)
(-0.467744 -0.484075 0)
(-0.298792 -1.34838 0)
(-0.108024 -1.97798 0)
(0.0818279 -2.31147 0)
(0.259432 -2.4257 0)
(0.42177 -2.43672 0)
(0.56781 -2.38924 0)
(0.698446 -2.31132 0)
(0.816522 -2.22205 0)
(0.925765 -2.13226 0)
(1.02964 -2.04664 0)
(1.13093 -1.96607 0)
(1.2316 -1.88944 0)
(1.33306 -1.81479 0)
(1.43612 -1.74036 0)
(-0.00321569 1.16471 0)
(0.0237195 1.42941 0)
(0.0391564 1.50069 0)
(0.0395472 1.58101 0)
(-0.0307821 1.67374 0)
(-0.156062 1.72627 0)
(-0.307689 1.67888 0)
(-0.437535 1.48469 0)
(-0.519685 1.11281 0)
(-0.48144 0.488286 0)
(-0.380073 -0.464949 0)
(-0.193438 -1.44708 0)
(-0.00698918 -2.14248 0)
(0.175881 -2.48991 0)
(0.348654 -2.59321 0)
(0.505234 -2.58922 0)
(0.644721 -2.52568 0)
(0.768463 -2.43331 0)
(0.879987 -2.3331 0)
(0.983548 -2.23633 0)
(1.0829 -2.1471 0)
(1.18086 -2.06534 0)
(1.27946 -1.98914 0)
(1.37998 -1.91629 0)
(1.48339 -1.84456 0)
(0.0167307 1.11532 0)
(0.0545471 1.40258 0)
(0.0566538 1.53225 0)
(0.0125973 1.66726 0)
(-0.0502736 1.77812 0)
(-0.12678 1.8297 0)
(-0.22223 1.75409 0)
(-0.331776 1.55277 0)
(-0.412663 1.22289 0)
(-0.329646 0.667317 0)
(-0.18545 -0.382277 0)
(0.00258082 -1.51549 0)
(0.157392 -2.28345 0)
(0.317723 -2.65264 0)
(0.472923 -2.74921 0)
(0.614436 -2.73115 0)
(0.7402 -2.65203 0)
(0.851551 -2.54591 0)
(0.952413 -2.436 0)
(1.04737 -2.33381 0)
(1.14016 -2.24253 0)
(1.23337 -2.16096 0)
(1.32848 -2.08653 0)
(1.42676 -2.01651 0)
(1.52919 -1.94885 0)
(0.0366763 1.06958 0)
(0.0631551 1.4001 0)
(0.0415449 1.57747 0)
(0.0044964 1.73163 0)
(-0.0156225 1.8375 0)
(-0.0275618 1.84438 0)
(-0.0633269 1.75336 0)
(-0.143565 1.53838 0)
(-0.189114 1.21704 0)
(-0.1546 1.15694 0)
(0.0895331 -0.26552 0)
(0.268915 -1.54064 0)
(0.378503 -2.37285 0)
(0.502456 -2.78686 0)
(0.628899 -2.88277 0)
(0.746174 -2.85414 0)
(0.851199 -2.762 0)
(0.944908 -2.64452 0)
(1.03141 -2.52751 0)
(1.11531 -2.42249 0)
(1.1999 -2.33139 0)
(1.28697 -2.25183 0)
(1.37765 -2.18039 0)
(1.47254 -2.1143 0)
(1.57228 -2.05148 0)
(0.0523849 1.03019 0)
(0.067118 1.40657 0)
(0.0491202 1.60409 0)
(0.0408664 1.74754 0)
(0.0722941 1.8212 0)
(0.12571 1.80179 0)
(0.15426 1.67397 0)
(0.0842137 1.41795 0)
(0.0838843 1.12128 0)
(0.117726 0.910495 0)
(0.399011 -0.330356 0)
(0.562341 -1.54693 0)
(0.631993 -2.4226 0)
(0.717164 -2.88654 0)
(0.807664 -2.9841 0)
(0.893669 -2.95082 0)
(0.972299 -2.85007 0)
(1.04424 -2.72515 0)
(1.11372 -2.60496 0)
(1.18492 -2.50063 0)
(1.26015 -2.41249 0)
(1.34034 -2.33689 0)
(1.42546 -2.2699 0)
(1.51595 -2.20862 0)
(1.61226 -2.15143 0)
(0.0649703 0.981797 0)
(0.0878061 1.4012 0)
(0.0915876 1.58901 0)
(0.1183 1.71432 0)
(0.1913 1.75722 0)
(0.296118 1.69677 0)
(0.384441 1.52058 0)
(0.348799 1.21358 0)
(0.38737 0.874424 0)
(0.540888 0.338137 0)
(0.76299 -0.564936 0)
(0.859679 -1.57019 0)
(0.892866 -2.44276 0)
(0.942576 -2.94112 0)
(0.995638 -3.04712 0)
(1.04714 -3.016 0)
(1.0963 -2.91237 0)
(1.14423 -2.78514 0)
(1.19552 -2.66679 0)
(1.25348 -2.56729 0)
(1.31895 -2.48505 0)
(1.39138 -2.41535 0)
(1.47038 -2.35406 0)
(1.5555 -2.29867 0)
(1.647 -2.24778 0)
(0.0817111 0.903517 0)
(0.127236 1.36407 0)
(0.161122 1.53712 0)
(0.216369 1.63463 0)
(0.31685 1.64505 0)
(0.462154 1.54535 0)
(0.597087 1.32017 0)
(0.636143 0.97605 0)
(0.731827 0.533907 0)
(0.922404 -0.0329816 0)
(1.07945 -0.738733 0)
(1.11339 -1.5867 0)
(1.12861 -2.44633 0)
(1.156 -2.97059 0)
(1.1772 -3.07162 0)
(1.19578 -3.05027 0)
(1.21518 -2.94756 0)
(1.23914 -2.82388 0)
(1.27295 -2.71298 0)
(1.31835 -2.6225 0)
(1.37413 -2.54879 0)
(1.43863 -2.48654 0)
(1.51035 -2.43201 0)
(1.58908 -2.38318 0)
(1.67498 -2.33929 0)
(0.101136 0.779487 0)
(0.180202 1.2811 0)
(0.242131 1.44686 0)
(0.320043 1.5157 0)
(0.436678 1.49649 0)
(0.605275 1.37076 0)
(0.773719 1.11878 0)
(0.888855 0.750166 0)
(1.03992 0.282849 0)
(1.20857 -0.237129 0)
(1.29025 -0.829019 0)
(1.29768 -1.60012 0)
(1.32343 -2.45149 0)
(1.34166 -2.97936 0)
(1.33882 -3.07518 0)
(1.32897 -3.05705 0)
(1.32076 -2.95737 0)
(1.32363 -2.84302 0)
(1.34271 -2.74518 0)
(1.37721 -2.66721 0)
(1.42397 -2.60387 0)
(1.48014 -2.55004 0)
(1.54447 -2.50287 0)
(1.61612 -2.46119 0)
(1.69508 -2.4247 0)
(0.121661 0.601662 0)
(0.237735 1.17215 0)
(0.32707 1.33023 0)
(0.421726 1.37407 0)
(0.546449 1.33096 0)
(0.723358 1.19152 0)
(0.909114 0.939268 0)
(1.06591 0.573113 0)
(1.22711 0.13524 0)
(1.35255 -0.348158 0)
(1.39314 -0.890178 0)
(1.42177 -1.63547 0)
(1.4774 -2.47288 0)
(1.49348 -2.97445 0)
(1.47094 -3.06818 0)
(1.43651 -3.03813 0)
(1.40635 -2.9445 0)
(1.39403 -2.84649 0)
(1.40253 -2.76626 0)
(1.42825 -2.70287 0)
(1.46672 -2.65068 0)
(1.51505 -2.60573 0)
(1.57151 -2.56637 0)
(1.63592 -2.53224 0)
(1.70827 -2.50349 0)
(0.134529 0.367328 0)
(0.293649 1.038 0)
(0.413509 1.2072 0)
(0.521174 1.22832 0)
(0.64849 1.16505 0)
(0.818821 1.01647 0)
(1.00066 0.769238 0)
(1.16233 0.422992 0)
(1.30056 -0.0012253 0)
(1.39307 -0.455714 0)
(1.42953 -0.965292 0)
(1.50784 -1.70973 0)
(1.59703 -2.51537 0)
(1.6089 -2.95853 0)
(1.56692 -3.03164 0)
(1.51314 -2.99553 0)
(1.46985 -2.9163 0)
(1.44938 -2.84011 0)
(1.45124 -2.77947 0)
(1.46998 -2.73094 0)
(1.501 -2.68981 0)
(1.5416 -2.65386 0)
(1.59099 -2.62265 0)
(1.64847 -2.59647 0)
(1.71385 -2.5757 0)
(0.134921 0.0842442 0)
(0.340176 0.838276 0)
(0.495099 1.07127 0)
(0.615884 1.08897 0)
(0.739564 1.00643 0)
(0.890938 0.845906 0)
(1.051 0.595515 0)
(1.19075 0.256979 0)
(1.30672 -0.163579 0)
(1.38066 -0.571744 0)
(1.43401 -1.06145 0)
(1.57382 -1.82388 0)
(1.68332 -2.57553 0)
(1.68371 -2.91568 0)
(1.62606 -2.98014 0)
(1.56106 -2.94339 0)
(1.5133 -2.88238 0)
(1.49018 -2.82909 0)
(1.48804 -2.78722 0)
(1.50107 -2.75248 0)
(1.52541 -2.72191 0)
(1.55938 -2.69498 0)
(1.60193 -2.67218 0)
(1.65292 -2.65416 0)
(1.7121 -2.6414 0)
(0.114494 -0.222583 0)
(0.367497 0.580792 0)
(0.559327 0.913227 0)
(0.695206 0.953463 0)
(0.811764 0.858777 0)
(0.937024 0.680464 0)
(1.06441 0.421884 0)
(1.17364 0.0786568 0)
(1.27704 -0.318088 0)
(1.3365 -0.663173 0)
(1.42505 -1.18092 0)
(1.62924 -1.97457 0)
(1.72978 -2.63481 0)
(1.71866 -2.87506 0)
(1.65215 -2.91639 0)
(1.58495 -2.88689 0)
(1.53917 -2.84763 0)
(1.51674 -2.81613 0)
(1.51221 -2.79091 0)
(1.52066 -2.76846 0)
(1.53955 -2.74791 0)
(1.56766 -2.72997 0)
(1.60469 -2.71566 0)
(1.64989 -2.70573 0)
(1.70272 -2.70077 0)
(0.0493583 -0.456462 0)
(0.353117 0.271633 0)
(0.586636 0.718118 0)
(0.742446 0.812121 0)
(0.852979 0.722374 0)
(0.952836 0.531256 0)
(1.04612 0.267491 0)
(1.13956 -0.0737183 0)
(1.22422 -0.411968 0)
(1.26002 -0.726342 0)
(1.42449 -1.35 0)
(1.67634 -2.15014 0)
(1.74338 -2.67531 0)
(1.72209 -2.82853 0)
(1.65181 -2.84976 0)
(1.5892 -2.83287 0)
(1.54951 -2.81566 0)
(1.52945 -2.80312 0)
(1.52363 -2.79177 0)
(1.5288 -2.78014 0)
(1.54357 -2.76906 0)
(1.56741 -2.75994 0)
(1.59949 -2.75392 0)
(1.6395 -2.75178 0)
(1.68692 -2.75415 0)
(-0.0329196 -0.344519 0)
(0.269683 -0.0243774 0)
(0.551349 0.484168 0)
(0.733966 0.655172 0)
(0.846697 0.595505 0)
(0.930482 0.411152 0)
(1.00126 0.152149 0)
(1.08492 -0.172076 0)
(1.11715 -0.435607 0)
(1.17442 -0.824809 0)
(1.45766 -1.59254 0)
(1.71003 -2.32282 0)
(1.74395 -2.68825 0)
(1.69963 -2.77175 0)
(1.62997 -2.78607 0)
(1.57815 -2.78669 0)
(1.54633 -2.7891 0)
(1.52921 -2.79127 0)
(1.52305 -2.791 0)
(1.52634 -2.78893 0)
(1.5385 -2.78675 0)
(1.55891 -2.786 0)
(1.58729 -2.78775 0)
(1.62274 -2.7928 0)
(1.66467 -2.8019 0)
(-0.0432796 -0.295808 0)
(0.0767031 -0.27358 0)
(0.416369 0.211778 0)
(0.641859 0.471491 0)
(0.769976 0.470342 0)
(0.848021 0.317113 0)
(0.913173 0.071834 0)
(0.961839 -0.210248 0)
(0.944398 -0.441839 0)
(1.14708 -1.0496 0)
(1.52312 -1.88613 0)
(1.70964 -2.45382 0)
(1.70311 -2.65642 0)
(1.64709 -2.71341 0)
(1.59323 -2.7338 0)
(1.55553 -2.75157 0)
(1.53141 -2.76825 0)
(1.51732 -2.78098 0)
(1.51185 -2.78973 0)
(1.5146 -2.7962 0)
(1.52525 -2.80217 0)
(1.54344 -2.80901 0)
(1.56835 -2.81774 0)
(1.59969 -2.82926 0)
(1.63702 -2.84434 0)
(-0.0507538 -0.312212 0)
(-0.125353 -0.306363 0)
(0.180943 -0.0419663 0)
(0.446591 0.271933 0)
(0.595416 0.341058 0)