/*--------------------------------*- C++ -*----------------------------------*\
  =========                 |
  \\      /  F ield         | OpenFOAM: The Open Source CFD Toolbox
   \\    /   O peration     | Website:  https://openfoam.org
    \\  /    A nd           | Version:  13
     \\/     M anipulation  |
\*---------------------------------------------------------------------------*/
FoamFile
{
    format      ascii;
    class       volVectorField;
    location    "14";
    object      U;
}
// * * * * * * * * * * * * * * * * * * * * * * * * * * * * * * * * * * * * * //

dimensions      [0 1 -1 0 0 0 0];

internalField   nonuniform List<vector> 
6440
(
(9.15421e-07 -1.77938e-06 0)
(2.39067e-06 -2.37629e-06 0)
(4.24532e-06 -2.20565e-06 8.369e-21)
(5.62837e-06 -2.37287e-06 -8.34459e-21)
(6.95067e-06 -2.80826e-06 0)
(8.02401e-06 -3.30741e-06 1.6708e-20)
(8.79678e-06 -3.80203e-06 -1.66122e-20)
(9.24395e-06 -4.24891e-06 0)
(9.31493e-06 -4.59734e-06 -3.3091e-20)
(8.9684e-06 -4.79285e-06 3.2813e-20)
(8.19239e-06 -4.78996e-06 3.26061e-20)
(7.00211e-06 -4.55218e-06 -1.64151e-23)
(5.44749e-06 -4.05611e-06 -6.66598e-23)
(3.61328e-06 -3.29086e-06 -3.14744e-20)
(1.5987e-06 -2.26064e-06 -3.08011e-20)
(-4.54211e-07 -1.01308e-06 3.03979e-20)
(-2.45106e-06 3.33674e-07 0)
(-4.3026e-06 1.66616e-06 -5.76486e-20)
(-5.85913e-06 2.91589e-06 5.79338e-22)
(-7.03618e-06 4.02696e-06 5.53233e-20)
(-7.77939e-06 4.87995e-06 -5.32523e-20)
(-7.9332e-06 5.14315e-06 1.04151e-19)
(-8.43605e-06 4.73626e-06 -5.08974e-20)
(-7.20287e-06 1.54398e-06 4.89938e-20)
(-1.99377e-06 -2.81827e-06 -1.60056e-22)
(8.24551e-07 -4.78345e-06 0)
(2.05702e-06 -6.23956e-06 0)
(3.60106e-06 -5.68437e-06 8.77669e-21)
(4.86132e-06 -5.77365e-06 -8.7516e-21)
(6.13587e-06 -6.2999e-06 0)
(7.25453e-06 -6.87524e-06 1.75371e-20)
(8.17259e-06 -7.37563e-06 -1.74383e-20)
(8.85814e-06 -7.78586e-06 0)
(9.25574e-06 -8.07295e-06 0)
(9.3169e-06 -8.19073e-06 0)
(9.0087e-06 -8.09524e-06 0)
(8.32301e-06 -7.75075e-06 3.40711e-20)
(7.27513e-06 -7.13224e-06 -3.37069e-20)
(5.91888e-06 -6.24212e-06 0)
(4.35534e-06 -5.12759e-06 -3.26518e-20)
(2.58663e-06 -3.80023e-06 3.22314e-20)
(5.46797e-07 -2.30209e-06 0)
(-1.55352e-06 -8.01975e-07 0)
(-3.4021e-06 5.38388e-07 -5.94245e-20)
(-4.84543e-06 1.68638e-06 5.85104e-20)
(-5.78279e-06 2.53762e-06 -5.58917e-20)
(-6.02862e-06 2.68042e-06 5.49721e-20)
(-7.11109e-06 2.0907e-06 5.2287e-20)
(-7.97589e-06 -1.43465e-06 -7.96798e-22)
(-1.23479e-06 -8.41567e-06 -3.75547e-20)
(7.41856e-07 -7.27145e-06 0)
(2.03968e-06 -9.20421e-06 0)
(3.46642e-06 -8.40654e-06 8.74085e-21)
(4.71837e-06 -8.46926e-06 -8.71739e-21)
(6.02738e-06 -8.96353e-06 0)
(7.27217e-06 -9.44117e-06 1.75126e-20)
(8.33185e-06 -9.77397e-06 -3.49314e-20)
(9.10905e-06 -9.93768e-06 1.7404e-20)
(9.60175e-06 -9.94909e-06 -3.49267e-20)
(9.76407e-06 -9.78322e-06 3.4655e-20)
(9.55041e-06 -9.39984e-06 3.4634e-20)
(8.93961e-06 -8.7703e-06 7.53134e-23)
(7.92875e-06 -7.87564e-06 -3.40392e-20)
(6.51585e-06 -6.71258e-06 -3.36384e-20)
(4.72929e-06 -5.32035e-06 1.26106e-22)
(2.54914e-06 -3.72065e-06 3.27227e-20)
(-7.72556e-08 -1.907e-06 0)
(-2.92215e-06 -2.7774e-08 -6.19937e-20)
(-5.49036e-06 1.5894e-06 6.11252e-20)
(-7.5101e-06 2.90304e-06 0)
(-8.91715e-06 3.85541e-06 -5.63027e-20)
(-9.35603e-06 4.05222e-06 1.09669e-19)
(-1.00737e-05 3.57959e-06 -5.33728e-20)
(-1.05733e-05 7.67942e-07 5.03057e-20)
(-1.22261e-06 -7.71354e-06 -3.78292e-20)
(7.44854e-07 -9.62703e-06 0)
(2.13917e-06 -1.16616e-05 0)
(3.48468e-06 -1.06864e-05 8.64989e-21)
(4.71695e-06 -1.07706e-05 -8.62809e-21)
(6.00955e-06 -1.12229e-05 0)
(7.26133e-06 -1.15848e-05 1.73885e-20)
(8.41153e-06 -1.18075e-05 -3.4716e-20)
(9.29437e-06 -1.18222e-05 1.73135e-20)
(9.85021e-06 -1.16696e-05 0)
(1.0088e-05 -1.136e-05 0)
(9.96527e-06 -1.08648e-05 0)
(9.43804e-06 -1.0153e-05 3.4526e-20)
(8.47046e-06 -9.20011e-06 -3.41977e-20)
(7.00477e-06 -7.98099e-06 -3.38998e-20)
(5.03605e-06 -6.50903e-06 3.35319e-20)
(2.56304e-06 -4.78945e-06 0)
(-4.8993e-07 -2.75639e-06 -6.42812e-20)
(-4.02435e-06 -4.7119e-07 6.34652e-20)
(-7.3636e-06 1.55969e-06 0)
(-1.00709e-05 3.22969e-06 0)
(-1.20824e-05 4.50126e-06 0)
(-1.28443e-05 4.99857e-06 0)
(-1.3224e-05 4.88544e-06 0)
(-1.34653e-05 3.1317e-06 4.99657e-20)
(-1.68261e-06 -6.70667e-06 -4.40618e-22)
(7.66185e-07 -1.20218e-05 0)
(2.24225e-06 -1.38462e-05 0)
(3.50128e-06 -1.27266e-05 8.50631e-21)
(4.68108e-06 -1.2872e-05 -8.48617e-21)
(5.90492e-06 -1.33011e-05 0)
(7.0721e-06 -1.35574e-05 1.7162e-20)
(8.21152e-06 -1.36784e-05 -3.42964e-20)
(9.14573e-06 -1.36521e-05 1.71213e-20)
(9.73709e-06 -1.33942e-05 0)
(1.00296e-05 -1.30154e-05 0)
(9.99316e-06 -1.25099e-05 0)
(9.57016e-06 -1.18346e-05 3.44729e-20)
(8.70165e-06 -1.09546e-05 -3.41639e-20)
(7.29302e-06 -9.81435e-06 -3.39805e-20)
(5.2919e-06 -8.37716e-06 3.36324e-20)
(2.71946e-06 -6.65515e-06 0)
(-5.09715e-07 -4.55646e-06 -6.46821e-20)
(-4.56613e-06 -1.96186e-06 6.39056e-20)
(-8.64377e-06 6.03618e-07 0)
(-1.20581e-05 2.71234e-06 0)
(-1.47389e-05 4.42949e-06 0)
(-1.59212e-05 5.29241e-06 0)
(-1.61941e-05 5.54013e-06 0)
(-1.64674e-05 4.849e-06 4.95708e-20)
(-2.355e-06 -5.96808e-06 -3.8197e-20)
(7.8306e-07 -1.4444e-05 0)
(2.32315e-06 -1.58167e-05 0)
(3.48809e-06 -1.4563e-05 8.31415e-21)
(4.58875e-06 -1.47611e-05 -8.29564e-21)
(5.70197e-06 -1.5144e-05 0)
(6.72193e-06 -1.52814e-05 1.68385e-20)
(7.68529e-06 -1.5249e-05 -3.36824e-20)
(8.65502e-06 -1.51664e-05 1.68316e-20)
(9.35655e-06 -1.49288e-05 -3.41235e-20)
(9.63538e-06 -1.45591e-05 3.39021e-20)
(9.63874e-06 -1.4116e-05 0)
(9.31904e-06 -1.35655e-05 3.42322e-20)
(8.59128e-06 -1.28601e-05 1.71422e-22)
(7.34708e-06 -1.19246e-05 -6.7695e-20)
(5.46219e-06 -1.06592e-05 3.35622e-20)
(2.92119e-06 -9.03766e-06 0)
(-3.37679e-07 -7.00468e-06 -6.48386e-20)
(-4.55955e-06 -4.33256e-06 8.55586e-22)
(-9.25063e-06 -1.21233e-06 1.15499e-21)
(-1.35016e-05 1.45086e-06 6.05826e-20)
(-1.69261e-05 3.71139e-06 0)
(-1.87092e-05 5.07169e-06 0)
(-1.90256e-05 5.62299e-06 0)
(-1.93689e-05 5.87772e-06 4.9126e-20)
(-3.07484e-06 -5.54116e-06 -3.82962e-20)
(7.94985e-07 -1.68494e-05 0)
(2.38649e-06 -1.75841e-05 0)
(3.45974e-06 -1.61928e-05 8.07847e-21)
(4.47239e-06 -1.64039e-05 -8.06155e-21)
(5.45461e-06 -1.66976e-05 -1.63255e-20)
(6.33215e-06 -1.67037e-05 3.26963e-20)
(7.14187e-06 -1.65299e-05 -3.28937e-20)
(7.93703e-06 -1.63368e-05 1.64548e-20)
(8.56169e-06 -1.61851e-05 0)
(8.86651e-06 -1.5856e-05 -3.36483e-20)
(8.91759e-06 -1.55217e-05 3.34216e-20)
(8.69845e-06 -1.51744e-05 3.38172e-20)
(8.13272e-06 -1.474e-05 -3.35482e-20)
(7.11615e-06 -1.41314e-05 -3.36393e-20)
(5.48642e-06 -1.32072e-05 3.33319e-20)
(3.11699e-06 -1.18406e-05 0)
(-2.01244e-08 -9.98923e-06 -6.47659e-20)
(-4.09834e-06 -7.44712e-06 6.40703e-20)
(-9.28104e-06 -3.98487e-06 0)
(-1.44602e-05 -5.90021e-07 -5.921e-20)
(-1.86796e-05 2.31208e-06 5.84896e-20)
(-2.12444e-05 4.31259e-06 0)
(-2.17448e-05 5.22737e-06 0)
(-2.21294e-05 6.32335e-06 4.86343e-20)
(-3.7833e-06 -5.46273e-06 -6.86351e-22)
(8.05321e-07 -1.92028e-05 0)
(2.44036e-06 -1.91653e-05 0)
(3.43346e-06 -1.7629e-05 7.80448e-21)
(4.35677e-06 -1.78042e-05 -7.78908e-21)
(5.19629e-06 -1.79695e-05 0)
(5.90249e-06 -1.7826e-05 1.59378e-20)
(6.49191e-06 -1.75207e-05 -1.58755e-20)
(7.00938e-06 -1.72151e-05 0)
(7.62921e-06 -1.70615e-05 0)
(8.02544e-06 -1.68716e-05 0)
(8.00388e-06 -1.66906e-05 0)
(7.81488e-06 -1.65938e-05 3.32425e-20)
(7.40358e-06 -1.65099e-05 -3.29931e-20)
(6.64348e-06 -1.63342e-05 0)
(5.36221e-06 -1.59047e-05 0)
(3.34396e-06 -1.5008e-05 0)
(4.70488e-07 -1.34924e-05 0)
(-3.41749e-06 -1.12079e-05 0)
(-8.74541e-06 -7.73818e-06 -6.13417e-20)
(-1.46398e-05 -3.5088e-06 6.06613e-20)
(-1.98883e-05 2.37189e-07 0)
(-2.34251e-05 3.08734e-06 0)
(-2.41965e-05 4.49365e-06 0)
(-2.47083e-05 6.33516e-06 4.8096e-20)
(-4.50277e-06 -5.69759e-06 -3.8323e-20)
(8.152e-07 -2.14777e-05 0)
(2.48888e-06 -2.05838e-05 0)
(3.4224e-06 -1.88957e-05 7.49729e-21)
(4.27046e-06 -1.89906e-05 -7.48334e-21)
(4.98539e-06 -1.90027e-05 0)
(5.54164e-06 -1.87099e-05 1.53789e-20)
(5.97421e-06 -1.82935e-05 -3.08605e-20)
(6.32353e-06 -1.78947e-05 1.54718e-20)
(6.73881e-06 -1.76601e-05 0)
(7.00938e-06 -1.76499e-05 0)
(6.96956e-06 -1.76448e-05 -3.23103e-20)
(6.8117e-06 -1.78101e-05 6.46213e-20)
(6.52956e-06 -1.81145e-05 -3.22921e-20)
(6.01682e-06 -1.84373e-05 -3.26958e-20)
(5.11041e-06 -1.86055e-05 3.24287e-20)
(3.56281e-06 -1.8356e-05 0)
(1.10044e-06 -1.73881e-05 6.39557e-20)
(-2.45714e-06 -1.54911e-05 -6.33401e-20)
(-7.399e-06 -1.23198e-05 0)
(-1.38403e-05 -7.57863e-06 0)
(-2.0379e-05 -2.75979e-06 0)
(-2.49655e-05 1.14328e-06 -5.354e-20)
(-2.63399e-05 3.28122e-06 5.29131e-20)
(-2.72977e-05 5.81526e-06 4.75122e-20)
(-5.31344e-06 -6.26191e-06 -3.82479e-20)
(8.23365e-07 -2.36498e-05 0)
(2.53298e-06 -2.18646e-05 0)
(3.43529e-06 -2.00242e-05 0)
(4.2371e-06 -2.00105e-05 0)
(4.86846e-06 -1.98721e-05 0)
(5.32447e-06 -1.94625e-05 0)
(5.64907e-06 -1.89791e-05 0)
(5.86523e-06 -1.85517e-05 0)
(6.05127e-06 -1.82868e-05 3.06588e-20)
(6.24958e-06 -1.83221e-05 -3.05019e-20)
(6.23195e-06 -1.84947e-05 0)
(6.00341e-06 -1.88944e-05 0)
(5.76714e-06 -1.95576e-05 0)
(5.4557e-06 -2.03806e-05 0)
(4.90943e-06 -2.11842e-05 0)
(3.8832e-06 -2.16878e-05 0)
(2.02557e-06 -2.14967e-05 0)
(-1.00131e-06 -2.02085e-05 6.22154e-20)
(-5.59916e-06 -1.74259e-05 -6.1621e-20)
(-1.2312e-05 -1.26084e-05 0)
(-1.97924e-05 -6.63065e-06 5.62408e-20)
(-2.56875e-05 -1.45494e-06 -5.56366e-20)
(-2.8299e-05 1.79111e-06 0)
(-2.98562e-05 5.08055e-06 0)
(-6.01585e-06 -6.92333e-06 0)
(8.25998e-07 -2.5694e-05 0)
(2.56956e-06 -2.30331e-05 0)
(3.47478e-06 -2.1055e-05 0)
(4.27462e-06 -2.09319e-05 0)
(4.88952e-06 -2.06835e-05 0)
(5.33456e-06 -2.02304e-05 0)
(5.65577e-06 -1.97641e-05 -1.42909e-20)
(5.87471e-06 -1.93888e-05 1.42365e-20)
(6.01669e-06 -1.91544e-05 2.94676e-20)
(6.09148e-06 -1.91463e-05 -2.93254e-20)
(5.95341e-06 -1.94461e-05 -3.03234e-20)
(5.66606e-06 -2.00189e-05 3.01466e-20)
(5.44535e-06 -2.09341e-05 0)
(5.26731e-06 -2.21509e-05 -3.12137e-20)
(5.0119e-06 -2.35183e-05 -3.39491e-22)
(4.46417e-06 -2.47672e-05 3.10819e-20)
(3.25781e-06 -2.54613e-05 0)
(8.99944e-07 -2.50195e-05 6.14628e-20)
(-3.12592e-06 -2.2863e-05 -6.09054e-20)
(-9.43705e-06 -1.82969e-05 0)
(-1.76698e-05 -1.13543e-05 0)
(-2.54099e-05 -4.51281e-06 -5.2928e-20)
(-2.96597e-05 2.60857e-07 5.23703e-20)
(-3.20064e-05 4.71262e-06 0)
(-6.59637e-06 -7.30016e-06 0)
(8.17405e-07 -2.75814e-05 0)
(2.59145e-06 -2.41122e-05 0)
(3.53594e-06 -2.20321e-05 0)
(4.3895e-06 -2.18338e-05 0)
(5.07525e-06 -2.15594e-05 0)
(5.62738e-06 -2.11838e-05 0)
(6.08964e-06 -2.08734e-05 0)
(6.47617e-06 -2.06885e-05 0)
(6.76544e-06 -2.06235e-05 0)
(6.83875e-06 -2.06743e-05 0)
(6.64163e-06 -2.10099e-05 2.91488e-20)
(6.34147e-06 -2.15847e-05 -2.89881e-20)
(6.10017e-06 -2.25047e-05 0)
(5.95471e-06 -2.38314e-05 0)
(5.86206e-06 -2.55167e-05 0)
(5.67075e-06 -2.73498e-05 0)
(5.072e-06 -2.89004e-05 0)
(3.5269e-06 -2.94709e-05 0)
(3.57314e-07 -2.8225e-05 0)
(-5.3189e-06 -2.42074e-05 0)
(-1.40017e-05 -1.68363e-05 0)
(-2.34344e-05 -8.45337e-06 5.26037e-20)
(-2.95714e-05 -1.60878e-06 -5.20776e-20)
(-3.35182e-05 4.62713e-06 0)
(-7.1769e-06 -7.25266e-06 0)
(7.9146e-07 -2.92791e-05 0)
(2.59043e-06 -2.51198e-05 0)
(3.61091e-06 -2.29997e-05 0)
(4.58178e-06 -2.27969e-05 0)
(5.43942e-06 -2.26219e-05 -1.23866e-20)
(6.23513e-06 -2.24876e-05 1.23562e-20)
(7.00676e-06 -2.25173e-05 0)
(7.75981e-06 -2.27149e-05 0)
(8.43975e-06 -2.30143e-05 2.67412e-20)
(8.76431e-06 -2.32869e-05 -5.39271e-20)
(8.74601e-06 -2.37013e-05 -6.77985e-22)
(8.62878e-06 -2.41819e-05 2.77037e-20)
(8.43828e-06 -2.48397e-05 0)
(8.23363e-06 -2.58471e-05 0)
(8.08493e-06 -2.73373e-05 -2.95384e-20)
(8.00109e-06 -2.9295e-05 2.9332e-20)
(7.81813e-06 -3.14143e-05 5.95599e-20)
(7.04952e-06 -3.2981e-05 2.01954e-22)
(4.89177e-06 -3.29214e-05 -5.88107e-20)
(1.93359e-07 -2.99577e-05 -5.72559e-20)
(-8.58996e-06 -2.26068e-05 5.6746e-20)
(-1.9142e-05 -1.28329e-05 -5.22723e-20)
(-2.7253e-05 -4.10479e-06 5.17754e-20)
(-3.37959e-05 4.22074e-06 0)
(-7.379e-06 -7.21957e-06 0)
(7.43302e-07 -3.07524e-05 0)
(2.56068e-06 -2.60721e-05 0)
(3.69414e-06 -2.40027e-05 0)
(4.85163e-06 -2.39026e-05 0)
(5.99041e-06 -2.39877e-05 0)
(7.1758e-06 -2.42923e-05 0)
(8.43633e-06 -2.48815e-05 0)
(9.76298e-06 -2.56939e-05 0)
(1.10979e-05 -2.66206e-05 2.52034e-20)
(1.20114e-05 -2.74254e-05 -2.51009e-20)
(1.25684e-05 -2.80752e-05 0)
(1.30253e-05 -2.85243e-05 0)
(1.31681e-05 -2.8791e-05 0)
(1.30077e-05 -2.90951e-05 0)
(1.26735e-05 -2.97379e-05 0)
(1.23596e-05 -3.10138e-05 0)
(1.21826e-05 -3.2904e-05 0)
(1.19027e-05 -3.4898e-05 5.78616e-20)
(1.07096e-05 -3.58951e-05 -5.74104e-20)
(7.2393e-06 -3.43116e-05 0)
(-5.89638e-07 -2.79925e-05 0)
(-1.19795e-05 -1.71713e-05 0)
(-2.27994e-05 -6.70182e-06 0)
(-3.28369e-05 4.16185e-06 0)
(-7.321e-06 -6.65751e-06 0)
(6.71299e-07 -3.19696e-05 0)
(2.50204e-06 -2.69854e-05 0)
(3.78643e-06 -2.50882e-05 0)
(5.20334e-06 -2.52303e-05 0)
(6.73431e-06 -2.57612e-05 0)
(8.45258e-06 -2.6718e-05 0)
(1.03746e-05 -2.80953e-05 0)
(1.24614e-05 -2.97532e-05 0)
(1.46455e-05 -3.15603e-05 0)
(1.65767e-05 -3.33195e-05 0)
(1.82752e-05 -3.45431e-05 -2.48144e-20)
(1.98205e-05 -3.52658e-05 2.46984e-20)
(2.08171e-05 -3.53297e-05 0)
(2.10995e-05 -3.48925e-05 0)
(2.07196e-05 -3.42393e-05 -2.71975e-20)
(2.00422e-05 -3.39429e-05 2.70265e-20)
(1.95363e-05 -3.42582e-05 5.58544e-20)
(1.92471e-05 -3.52029e-05 -5.5461e-20)
(1.85841e-05 -3.62469e-05 0)
(1.62981e-05 -3.59152e-05 0)
(9.96306e-06 -3.13039e-05 0)
(-1.77807e-06 -2.08235e-05 -5.16489e-20)
(-1.49775e-05 -8.74335e-06 9.94049e-20)
(-2.93301e-05 4.92131e-06 -4.77749e-20)
(-6.49003e-06 -4.62546e-06 0)
(5.78064e-07 -3.29061e-05 0)
(2.4207e-06 -2.78768e-05 0)
(3.89629e-06 -2.63052e-05 0)
(5.64947e-06 -2.68558e-05 0)
(7.68401e-06 -2.80345e-05 0)
(1.00751e-05 -2.98654e-05 0)
(1.28301e-05 -3.22614e-05 1.03488e-20)
(1.58547e-05 -3.49891e-05 -1.03191e-20)
(1.89998e-05 -3.78307e-05 2.17732e-20)
(2.22891e-05 -4.0673e-05 -2.16938e-20)
(2.56741e-05 -4.31093e-05 2.30435e-20)
(2.8866e-05 -4.48441e-05 -2.29414e-20)
(3.13754e-05 -4.53922e-05 0)
(3.28266e-05 -4.49491e-05 2.50916e-20)
(3.30995e-05 -4.3284e-05 -2.49516e-20)
(3.26587e-05 -4.08056e-05 0)
(3.20727e-05 -3.82821e-05 0)
(3.12595e-05 -3.60739e-05 5.41594e-20)
(3.00504e-05 -3.45141e-05 6.88503e-22)
(2.82013e-05 -3.32344e-05 -5.40626e-20)
(2.33548e-05 -2.99122e-05 0)
(1.26248e-05 -2.13762e-05 5.13744e-20)
(-2.04571e-06 -8.32794e-06 -5.09488e-20)
(-2.19041e-05 8.22723e-06 0)
(-3.93328e-06 6.48921e-07 3.62872e-20)
(4.66085e-07 -3.35241e-05 0)
(2.32298e-06 -2.87378e-05 0)
(4.03195e-06 -2.76686e-05 0)
(6.20137e-06 -2.87938e-05 0)
(8.83941e-06 -3.07985e-05 0)
(1.20231e-05 -3.36912e-05 0)
(1.57599e-05 -3.73176e-05 0)
(1.99388e-05 -4.13398e-05 0)
(2.43784e-05 -4.54962e-05 0)
(2.90148e-05 -4.96681e-05 0)
(3.39998e-05 -5.35421e-05 0)
(3.93254e-05 -5.67099e-05 0)
(4.394e-05 -5.87446e-05 0)
(4.74756e-05 -5.91122e-05 0)
(5.01118e-05 -5.73478e-05 0)
(5.14551e-05 -5.33867e-05 0)
(5.17548e-05 -4.80163e-05 0)
(5.1033e-05 -4.14874e-05 0)
(4.92371e-05 -3.48725e-05 0)
(4.64789e-05 -2.86372e-05 0)
(4.15592e-05 -2.25692e-05 0)
(3.27508e-05 -1.47525e-05 0)
(1.79516e-05 -2.22321e-06 0)
(-8.08798e-06 1.75326e-05 0)
(1.5754e-06 1.3112e-05 0)
(3.39918e-07 -3.37031e-05 -1.80591e-21)
(2.21838e-06 -2.94581e-05 -2.01382e-21)
(4.22604e-06 -2.90673e-05 4.00407e-21)
(6.91901e-06 -3.09441e-05 -8.16808e-21)
(1.02534e-05 -3.3931e-05 8.15598e-21)
(1.42994e-05 -3.80305e-05 0)
(1.91092e-05 -4.30946e-05 -8.58966e-21)
(2.45289e-05 -4.86987e-05 -8.9906e-21)
(3.02141e-05 -5.4489e-05 3.54871e-20)
(3.64076e-05 -6.03346e-05 -1.79215e-20)
(4.34698e-05 -6.56511e-05 -1.89818e-20)
(5.082e-05 -7.01053e-05 1.89057e-20)
(5.79204e-05 -7.35274e-05 2.02356e-20)
(6.48841e-05 -7.52165e-05 -4.10974e-20)
(7.1064e-05 -7.4774e-05 -8.77305e-22)
(7.5596e-05 -7.1274e-05 -2.34452e-20)
(7.88613e-05 -6.45942e-05 4.48008e-20)
(8.0234e-05 -5.48264e-05 4.82422e-20)
(7.93002e-05 -4.33636e-05 -9.75883e-20)
(7.64897e-05 -3.00951e-05 4.932e-20)
(7.1154e-05 -1.64666e-05 0)
(6.30017e-05 -3.19936e-06 -5.09867e-20)
(4.82722e-05 1.15885e-05 9.98829e-20)
(1.57777e-05 3.84958e-05 -4.88988e-20)
(1.28951e-05 4.28881e-05 -3.8594e-20)
(2.14073e-07 -3.35282e-05 0)
(2.14142e-06 -3.01643e-05 0)
(4.51596e-06 -3.06116e-05 0)
(7.82301e-06 -3.34536e-05 0)
(1.1932e-05 -3.77209e-05 0)
(1.68189e-05 -4.32445e-05 0)
(2.26004e-05 -4.97303e-05 0)
(2.92143e-05 -5.68141e-05 0)
(3.63501e-05 -6.41175e-05 0)
(4.4507e-05 -7.11404e-05 0)
(5.38933e-05 -7.74821e-05 0)
(6.38001e-05 -8.30082e-05 0)
(7.38372e-05 -8.72633e-05 0)
(8.38068e-05 -8.99107e-05 0)
(9.36996e-05 -9.08926e-05 0)
(0.000103321 -8.95623e-05 0)
(0.000111912 -8.52957e-05 0)
(0.000117445 -7.69509e-05 0)
(0.000120662 -6.40714e-05 4.55162e-20)
(0.000121647 -4.66899e-05 -4.52257e-20)
(0.000118756 -2.57973e-05 0)
(0.000112439 -3.38828e-07 0)
(9.96798e-05 2.79932e-05 0)
(6.25022e-05 8.01948e-05 0)
(3.60682e-05 0.000128003 0)
(1.41608e-07 -3.32665e-05 0)
(2.15219e-06 -3.12113e-05 0)
(4.93618e-06 -3.28365e-05 0)
(8.7559e-06 -3.6856e-05 0)
(1.36041e-05 -4.239e-05 0)
(1.95606e-05 -4.91693e-05 0)
(2.65955e-05 -5.67051e-05 0)
(3.45521e-05 -6.46078e-05 0)
(4.35193e-05 -7.24386e-05 0)
(5.40514e-05 -7.94261e-05 0)
(6.58762e-05 -8.57298e-05 1.46838e-20)
(7.83314e-05 -9.11238e-05 -1.46295e-20)
(9.12932e-05 -9.53302e-05 0)
(0.00010467 -9.80985e-05 0)
(0.000118255 -9.91321e-05 0)
(0.000131544 -9.82723e-05 0)
(0.000144477 -9.57055e-05 0)
(0.000157011 -9.10831e-05 0)
(0.000168623 -8.23899e-05 0)
(0.000177289 -6.83212e-05 0)
(0.000185406 -4.91415e-05 0)
(0.000193805 -2.75514e-05 4.90594e-20)
(0.000200482 -1.04089e-05 -4.86891e-20)
(0.000183257 3.44145e-05 0)
(3.13268e-05 0.00029138 0)
(5.92378e-08 -3.3598e-05 0)
(2.07489e-06 -3.30863e-05 0)
(5.31792e-06 -3.58852e-05 0)
(9.89701e-06 -4.08997e-05 0)
(1.57356e-05 -4.71983e-05 0)
(2.28594e-05 -5.44744e-05 0)
(3.12256e-05 -6.22065e-05 0)
(4.0798e-05 -6.98609e-05 0)
(5.20392e-05 -7.66759e-05 0)
(6.49769e-05 -8.24747e-05 0)
(7.90553e-05 -8.73777e-05 0)
(9.41162e-05 -9.10794e-05 0)
(0.000110079 -9.33262e-05 0)
(0.000126895 -9.39169e-05 0)
(0.000144512 -9.26947e-05 0)
(0.000162497 -8.94812e-05 0)
(0.000180675 -8.36338e-05 0)
(0.000199266 -7.51364e-05 0)
(0.00021882 -6.32999e-05 0)
(0.000239502 -4.67041e-05 0)
(0.000261605 -2.13342e-05 0)
(0.000287059 1.22461e-05 0)
(0.000326788 5.5081e-05 0)
(0.000437092 0.000119248 0)
(0.000761113 0.000423975 0)
(4.83633e-08 -3.45633e-05 0)
(2.2216e-06 -3.58526e-05 0)
(5.95162e-06 -3.99517e-05 0)
(1.13131e-05 -4.61382e-05 0)
(1.81855e-05 -5.35117e-05 0)
(2.65378e-05 -6.16729e-05 0)
(3.63581e-05 -7.00075e-05 0)
(4.78435e-05 -7.78966e-05 0)
(6.09545e-05 -8.47571e-05 0)
(7.55433e-05 -9.07439e-05 0)
(9.15485e-05 -9.55978e-05 0)
(0.000108774 -9.9075e-05 0)
(0.00012712 -0.000100976 0)
(0.00014651 -0.000101145 0)
(0.000166886 -9.95071e-05 0)
(0.000188561 -9.60457e-05 0)
(0.000211591 -9.03306e-05 0)
(0.000235713 -8.21589e-05 0)
(0.000260918 -7.1104e-05 0)
(0.000287796 -5.68539e-05 0)
(0.00031765 -3.73218e-05 0)
(0.000353181 -9.82948e-06 0)
(0.000401577 2.63911e-05 0)
(0.000467356 6.03995e-05 0)
(0.000463784 4.86624e-05 0)
(2.76641e-08 -3.56122e-05 0)
(2.40359e-06 -3.90388e-05 0)
(6.62004e-06 -4.48375e-05 0)
(1.27399e-05 -5.26284e-05 0)
(2.06143e-05 -6.15725e-05 0)
(3.02102e-05 -7.12415e-05 0)
(4.15086e-05 -8.09825e-05 0)
(5.45837e-05 -9.02076e-05 0)
(6.93571e-05 -9.86355e-05 0)
(8.57192e-05 -0.000105936 0)
(0.000103639 -0.00011193 0)
(0.000122998 -0.000116399 0)
(0.000143726 -0.000119123 0)
(0.000165776 -0.000119921 0)
(0.000189125 -0.00011863 0)
(0.000213897 -0.000115141 0)
(0.000240192 -0.000109708 0)
(0.000267955 -0.000102287 0)
(0.000296842 -9.27117e-05 0)
(0.000326781 -8.03189e-05 0)
(0.000358191 -6.3917e-05 0)
(0.000391204 -4.15562e-05 0)
(0.00042538 -1.2803e-05 0)
(0.000452116 1.6263e-05 0)
(0.000430564 3.84449e-05 0)
(1.39801e-08 -3.6741e-05 0)
(2.58971e-06 -4.25812e-05 0)
(7.26359e-06 -5.03578e-05 0)
(1.40833e-05 -6.00217e-05 0)
(2.28718e-05 -7.07927e-05 0)
(3.35786e-05 -8.22478e-05 0)
(4.61704e-05 -9.37608e-05 0)
(6.06352e-05 -0.000104766 0)
(7.69135e-05 -0.000114925 0)
(9.49326e-05 -0.000123891 0)
(0.000114639 -0.000131452 0)
(0.000135963 -0.000137396 0)
(0.000158854 -0.000141524 0)
(0.000183274 -0.00014366 0)
(0.0002092 -0.000143656 0)
(0.000236633 -0.000141405 0)
(0.000265544 -0.000136956 0)
(0.000295748 -0.000130327 0)
(0.000326822 -0.000121406 0)
(0.000358265 -0.000109428 0)
(0.000389416 -9.31064e-05 0)
(0.000418783 -6.99942e-05 0)
(0.000443452 -3.71033e-05 0)
(0.000456861 8.94599e-06 0)
(0.000443106 7.80609e-05 0)
(1.94243e-09 -3.79438e-05 0)
(2.75494e-06 -4.64446e-05 0)
(7.83367e-06 -5.64391e-05 0)
(1.52698e-05 -6.81974e-05 0)
(2.48564e-05 -8.09998e-05 0)
(3.65282e-05 -9.44401e-05 0)
(5.02345e-05 -0.000107902 0)
(6.59275e-05 -0.000120828 0)
(8.3546e-05 -0.000132824 0)
(0.000103026 -0.000143581 0)
(0.000124311 -0.00015287 0)
(0.000147344 -0.000160486 0)
(0.000172078 -0.000166246 0)
(0.00019847 -0.000169981 0)
(0.000226472 -0.000171541 0)
(0.000256017 -0.000170794 0)
(0.000286968 -0.000167639 0)
(0.000319031 -0.000161929 0)
(0.000351673 -0.00015329 0)
(0.000384099 -0.000140823 0)
(0.000415392 -0.000122877 0)
(0.00044369 -9.67171e-05 0)
(0.000466409 -5.75236e-05 0)
(0.000480472 1.36826e-06 0)
(0.000482068 9.04389e-05 0)
(-1.11176e-08 -3.92075e-05 0)
(2.88728e-06 -5.05824e-05 0)
(8.31037e-06 -6.29984e-05 0)
(1.62704e-05 -7.70305e-05 0)
(2.65389e-05 -9.20277e-05 0)
(3.90365e-05 -0.000107601 0)
(5.36962e-05 -0.000123136 0)
(7.04495e-05 -0.000138074 0)
(8.92258e-05 -0.000152009 0)
(0.00010996 -0.000164647 0)
(0.000132591 -0.000175759 0)
(0.000157063 -0.000185149 0)
(0.000183322 -0.000192634 0)
(0.000211312 -0.000198041 0)
(0.000240959 -0.000201199 0)
(0.000272147 -0.000201926 0)
(0.000304683 -0.000200006 0)
(0.000338231 -0.000195111 0)
(0.000372261 -0.000186647 0)
(0.000406008 -0.000173495 0)
(0.000438311 -0.000153699 0)
(0.00046804 -0.000124282 0)
(0.000494102 -8.01483e-05 0)
(0.000515681 -1.47515e-05 0)
(0.000533965 7.99927e-05 0)
(-2.68231e-08 -4.05153e-05 0)
(2.98123e-06 -5.49449e-05 0)
(8.68223e-06 -6.99539e-05 0)
(1.7073e-05 -8.64142e-05 0)
(2.79081e-05 -0.000103749 0)
(4.10949e-05 -0.000121581 0)
(5.65502e-05 -0.000139296 0)
(7.41899e-05 -0.000156338 0)
(9.39347e-05 -0.000172304 0)
(0.000115712 -0.000186907 0)
(0.000139457 -0.000199925 0)
(0.000165107 -0.000211164 0)
(0.000192601 -0.000220437 0)
(0.000221865 -0.000227559 0)
(0.000252806 -0.000232326 0)
(0.000285286 -0.000234503 0)
(0.000319091 -0.000233774 0)
(0.000353899 -0.000229672 0)
(0.000389245 -0.000221442 0)
(0.000424513 -0.000207847 0)
(0.000458937 -0.000186892 0)
(0.000492011 -0.000155345 0)
(0.000523654 -0.000108928 0)
(0.000554755 -4.226e-05 0)
(0.00058815 5.0185e-05 0)
(-4.57876e-08 -4.18474e-05 0)
(3.03448e-06 -5.94796e-05 0)
(8.94804e-06 -7.72242e-05 0)
(1.76778e-05 -9.62455e-05 0)
(2.89675e-05 -0.000116037 0)
(4.27088e-05 -0.000136232 0)
(5.88046e-05 -0.000156217 0)
(7.716e-05 -0.000175442 0)
(9.76859e-05 -0.000193511 0)
(0.000120304 -0.000210145 0)
(0.000144942 -0.000225129 0)
(0.000171532 -0.000238268 0)
(0.000200001 -0.000249372 0)
(0.00023027 -0.000258237 0)
(0.000262233 -0.00026463 0)
(0.000295749 -0.000268264 0)
(0.000330623 -0.000268751 0)
(0.000366585 -0.000265532 0)
(0.000403292 -0.000257762 0)
(0.000440356 -0.000244161 0)
(0.000477436 -0.00022282 0)
(0.000514523 -0.000190953 0)
(0.000552276 -0.000145019 0)
(0.000592431 -8.08889e-05 0)
(0.00063823 4.93059e-06 0)
(-6.79115e-08 -4.3184e-05 0)
(3.04904e-06 -6.4135e-05 0)
(9.11178e-06 -8.47326e-05 0)
(1.80952e-05 -0.000106425 0)
(2.97306e-05 -0.000128771 0)
(4.38972e-05 -0.000151412 0)
(6.04871e-05 -0.00017374 0)
(7.93956e-05 -0.00019521 0)
(0.000100528 -0.000215438 0)
(0.000123797 -0.000234153 0)
(0.000149127 -0.000251146 0)
(0.000176443 -0.000266223 0)
(0.000205668 -0.000279188 0)
(0.000236719 -0.000289822 0)
(0.000269494 -0.000297869 0)
(0.000303866 -0.000303006 0)
(0.000339677 -0.000304801 0)
(0.000376738 -0.000302652 0)
(0.000414846 -0.0002957 0)
(0.000453841 -0.000282722 0)
(0.000493714 -0.000262019 0)
(0.000534833 -0.000231334 0)
(0.000578257 -0.000187952 0)
(0.000626006 -0.000128925 0)
(0.000681251 -5.19547e-05 0)
(-9.24777e-08 -4.45066e-05 0)
(3.02816e-06 -6.8862e-05 0)
(9.18363e-06 -9.24068e-05 0)
(1.83398e-05 -0.000116858 0)
(3.022e-05 -0.000141834 0)
(4.46923e-05 -0.000166986 0)
(6.16403e-05 -0.000191713 0)
(8.09537e-05 -0.00021548 0)
(0.000102531 -0.00023791 0)
(0.000126282 -0.000258745 0)
(0.000152124 -0.000277781 0)
(0.000179981 -0.000294826 0)
(0.000209776 -0.00030968 0)
(0.000241428 -0.000322116 0)
(0.000274849 -0.000331865 0)
(0.00030994 -0.000338585 0)
(0.000346592 -0.00034183 0)
(0.000384701 -0.000341 0)
(0.000424198 -0.00033528 0)
(0.00046511 -0.000323574 0)
(0.000507669 -0.000304453 0)
(0.000552483 -0.000276151 0)
(0.000600749 -0.000236691 0)
(0.000654481 -0.000184173 0)
(0.000716522 -0.000117185 0)
(-1.18733e-07 -4.57992e-05 0)
(2.97777e-06 -7.36174e-05 0)
(9.17458e-06 -0.000100181 0)
(1.84315e-05 -0.000127458 0)
(3.04642e-05 -0.000155121 0)
(4.51338e-05 -0.000182834 0)
(6.23185e-05 -0.000210003 0)
(8.19023e-05 -0.000236103 0)
(0.000103781 -0.00026077 0)
(0.000127861 -0.000283756 0)
(0.000154059 -0.000304862 0)
(0.000182297 -0.000323903 0)
(0.000212504 -0.000340678 0)
(0.000244608 -0.000354962 0)
(0.00027854 -0.000366479 0)
(0.000314234 -0.000374888 0)
(0.000351635 -0.000379756 0)
(0.000390719 -0.000380517 0)
(0.000431528 -0.000376439 0)
(0.000474228 -0.000366589 0)
(0.000519205 -0.000349817 0)
(0.000567185 -0.000324792 0)
(0.000619373 -0.000290133 0)
(0.000677577 -0.00024466 0)
(0.000744283 -0.00018775 0)
(-1.4571e-07 -4.70487e-05 0)
(2.90321e-06 -7.8364e-05 0)
(9.0984e-06 -0.000107998 0)
(1.8391e-05 -0.000138146 0)
(3.04953e-05 -0.000168537 0)
(4.52666e-05 -0.000198846 0)
(6.25792e-05 -0.000228489 0)
(8.23158e-05 -0.00025695 0)
(0.000104369 -0.000283879 0)
(0.000128645 -0.000309039 0)
(0.00015506 -0.00033224 0)
(0.000183541 -0.000353305 0)
(0.000214024 -0.00037204 0)
(0.000246449 -0.000388223 0)
(0.000280772 -0.000401589 0)
(0.000316959 -0.000411811 0)
(0.000355007 -0.000418485 0)
(0.00039496 -0.000421104 0)
(0.000436942 -0.00041904 0)
(0.000481216 -0.000411529 0)
(0.000528251 -0.000397684 0)
(0.000578809 -0.000376542 0)
(0.000634033 -0.000347181 0)
(0.000695509 -0.000308915 0)
(0.000765257 -0.000261565 0)
(-1.72661e-07 -4.82453e-05 0)
(2.81088e-06 -8.30709e-05 0)
(8.96685e-06 -0.000115806 0)
(1.82407e-05 -0.000148855 0)
(3.03457e-05 -0.000181999 0)
(4.51352e-05 -0.000214927 0)
(6.24818e-05 -0.000247062 0)
(8.22661e-05 -0.000277904 0)
(0.000104382 -0.000307114 0)
(0.000128736 -0.000334466 0)
(0.000155248 -0.000359786 0)
(0.00018385 -0.000382904 0)
(0.000214487 -0.000403638 0)
(0.000247116 -0.00042178 0)
(0.000281713 -0.000437079 0)
(0.000318278 -0.000449239 0)
(0.000356851 -0.000457898 0)
(0.000397527 -0.000462618 0)
(0.000440493 -0.000462881 0)
(0.000486064 -0.000458087 0)
(0.000534743 -0.000447577 0)
(0.000587277 -0.00043069 0)
(0.000644706 -0.000406853 0)
(0.000708388 -0.000375736 0)
(0.000779965 -0.000337436 0)
(-1.98712e-07 -4.93821e-05 0)
(2.7053e-06 -8.77133e-05 0)
(8.79272e-06 -0.000123562 0)
(1.80003e-05 -0.000159526 0)
(3.00464e-05 -0.000195436 0)
(4.47823e-05 -0.000230993 0)
(6.20801e-05 -0.000265632 0)
(8.18219e-05 -0.000298864 0)
(0.000103902 -0.000330366 0)
(0.00012823 -0.000359927 0)
(0.000154731 -0.000387383 0)
(0.000183343 -0.000412582 0)
(0.000214021 -0.000435356 0)
(0.000246739 -0.000455514 0)
(0.000281493 -0.000472832 0)
(0.00031831 -0.000487047 0)
(0.000357263 -0.000497848 0)
(0.000398484 -0.000504873 0)
(0.000442198 -0.000507709 0)
(0.000488746 -0.000505905 0)
(0.00053863 -0.000498996 0)
(0.000592548 -0.000486554 0)
(0.000651422 -0.00046827 0)
(0.000716396 -0.000444057 0)
(0.000788802 -0.000414189 0)
(-2.23393e-07 -5.0455e-05 0)
(2.59155e-06 -9.22712e-05 0)
(8.58526e-06 -0.000131231 0)
(1.7689e-05 -0.00017011 0)
(2.96248e-05 -0.000208787 0)
(4.42455e-05 -0.000246973 0)
(6.14238e-05 -0.000284116 0)
(8.10425e-05 -0.000319742 0)
(0.000103 -0.000353541 0)
(0.000127209 -0.000385318 0)
(0.000153601 -0.000414928 0)
(0.00018212 -0.000442231 0)
(0.000212733 -0.000467081 0)
(0.000245426 -0.000489308 0)
(0.000280213 -0.000508719 0)
(0.000317141 -0.000525089 0)
(0.000356307 -0.000538161 0)
(0.000397867 -0.000547647 0)
(0.000442063 -0.000553235 0)
(0.00048924 -0.000554599 0)
(0.000539878 -0.000551433 0)
(0.000594609 -0.000543492 0)
(0.000654233 -0.000530655 0)
(0.000719705 -0.000513003 0)
(0.000792097 -0.000490912 0)
(-2.4619e-07 -5.14621e-05 0)
(2.47249e-06 -9.67293e-05 0)
(8.35426e-06 -0.000138785 0)
(1.73215e-05 -0.000180568 0)
(2.91051e-05 -0.000222 0)
(4.3558e-05 -0.000262804 0)
(6.05543e-05 -0.000302443 0)
(7.99807e-05 -0.000340457 0)
(0.000101738 -0.000376552 0)
(0.000125744 -0.00041055 0)
(0.000151935 -0.000442322 0)
(0.000180265 -0.000471748 0)
(0.000210707 -0.000498703 0)
(0.000243258 -0.000523042 0)
(0.000277947 -0.000544604 0)
(0.000314834 -0.000563204 0)
(0.00035403 -0.000578641 0)
(0.000395702 -0.000590696 0)
(0.000440095 -0.000599144 0)
(0.000487541 -0.000603768 0)
(0.000538483 -0.000604389 0)
(0.000593482 -0.000600898 0)
(0.00065322 -0.000593309 0)
(0.000718485 -0.000581815 0)
(0.000790136 -0.000566847 0)
(-2.67014e-07 -5.24033e-05 0)
(2.35172e-06 -0.000101076 0)
(8.10581e-06 -0.0001462 0)
(1.69117e-05 -0.000190864 0)
(2.85066e-05 -0.000235031 0)
(4.27465e-05 -0.000278435 0)
(5.95078e-05 -0.000320553 0)
(7.86792e-05 -0.000360941 0)
(0.000100167 -0.000399323 0)
(0.000123893 -0.000435537 0)
(0.000149798 -0.000469474 0)
(0.000177844 -0.000501033 0)
(0.00020801 -0.000530111 0)
(0.000240302 -0.00055659 0)
(0.000274756 -0.000580341 0)
(0.000311441 -0.000601221 0)
(0.000350472 -0.000619079 0)
(0.000392019 -0.00063376 0)
(0.000436315 -0.000645113 0)
(0.000483671 -0.000653013 0)
(0.000534483 -0.000657379 0)
(0.000589236 -0.000658205 0)
(0.000648506 -0.000655599 0)
(0.000712935 -0.000649823 0)
(0.000783205 -0.000641335 0)
(-2.85234e-07 -5.32801e-05 0)
(2.23105e-06 -0.000105302 0)
(7.84666e-06 -0.000153458 0)
(1.64691e-05 -0.000200972 0)
(2.78457e-05 -0.000247843 0)
(4.1834e-05 -0.000293819 0)
(5.83124e-05 -0.000338391 0)