/*--------------------------------*- C++ -*----------------------------------*\
  =========                 |
  \\      /  F ield         | OpenFOAM: The Open Source CFD Toolbox
   \\    /   O peration     | Website:  https://openfoam.org
    \\  /    A nd           | Version:  13
     \\/     M anipulation  |
\*---------------------------------------------------------------------------*/
FoamFile
{
    format      ascii;
    class       surfaceScalarField;
    location    "7";
    object      phi;
}
// * * * * * * * * * * * * * * * * * * * * * * * * * * * * * * * * * * * * * //

dimensions      [0 3 -1 0 0 0 0];

internalField   nonuniform List<scalar> 
12590
(
2.83584e-12
-2.83599e-12
6.33913e-12
-3.50349e-12
9.34675e-12
-3.00783e-12
1.20655e-11
-2.71901e-12
1.46087e-11
-2.54337e-12
1.67849e-11
-2.17639e-12
1.84993e-11
-1.71468e-12
1.97006e-11
-1.20144e-12
2.02711e-11
-5.70738e-13
2.0111e-11
1.59908e-13
1.9151e-11
9.5979e-13
1.73682e-11
1.78259e-12
1.4799e-11
2.56905e-12
1.15465e-11
3.25225e-12
7.78089e-12
3.76544e-12
3.72593e-12
4.05477e-12
-3.53676e-13
4.07942e-12
-4.17858e-12
3.82472e-12
-7.54702e-12
3.36826e-12
-1.02722e-11
2.725e-12
-1.19923e-11
1.71994e-12
-1.24311e-11
4.38647e-13
-1.09763e-11
-1.4551e-12
-6.42061e-12
-4.55589e-12
-6.42064e-12
2.06703e-12
-4.90328e-12
4.59747e-12
-6.03424e-12
6.77637e-12
-5.18707e-12
8.76247e-12
-4.70544e-12
1.06455e-11
-4.42669e-12
1.24716e-11
-4.00284e-12
1.39673e-11
-3.21071e-12
1.52195e-11
-2.454e-12
1.61728e-11
-1.52431e-12
1.67742e-11
-4.41792e-13
1.6983e-11
7.50664e-13
1.67741e-11
1.99119e-12
1.61435e-11
3.19933e-12
1.51114e-11
4.28403e-12
1.37222e-11
5.15438e-12
1.20445e-11
5.73222e-12
1.01686e-11
5.95506e-12
8.20622e-12
5.78677e-12
6.30791e-12
5.26629e-12
4.56427e-12
4.46837e-12
2.94004e-12
3.34389e-12
1.749e-12
1.62941e-12
9.17949e-13
-6.2437e-13
4.2269e-14
-3.68051e-12
-6.3784e-12
1.89499e-12
-6.79858e-12
4.06766e-12
-8.20728e-12
6.0232e-12
-7.143e-12
7.91684e-12
-6.59946e-12
9.81388e-12
-6.32411e-12
1.17705e-11
-5.95979e-12
1.38678e-11
-5.30845e-12
1.56271e-11
-4.2136e-12
1.7241e-11
-3.13864e-12
1.86299e-11
-1.83101e-12
1.96983e-11
-3.18135e-13
2.03505e-11
1.33864e-12
2.04972e-11
3.05235e-12
2.00718e-11
4.70903e-12
1.90484e-11
6.17746e-12
1.74547e-11
7.32562e-12
1.53755e-11
8.03391e-12
1.29676e-11
8.1944e-12
1.04075e-11
7.82604e-12
7.79499e-12
7.08058e-12
5.32011e-12
5.81846e-12
3.22652e-12
3.72269e-12
1.81401e-12
7.87772e-13
4.29105e-13
-2.29594e-12
-5.94934e-12
2.00768e-12
-8.80662e-12
4.0515e-12
-1.02515e-11
5.91814e-12
-9.01007e-12
7.78062e-12
-8.46237e-12
9.68358e-12
-8.22749e-12
1.1667e-11
-7.94368e-12
1.38222e-11
-7.46399e-12
1.62051e-11
-6.59694e-12
1.81726e-11
-5.10654e-12
1.99859e-11
-3.64471e-12
2.15315e-11
-1.86415e-12
2.26751e-11
1.94688e-13
2.32836e-11
2.44346e-12
2.32395e-11
4.75274e-12
2.2465e-11
6.95167e-12
2.09467e-11
8.84348e-12
1.87458e-11
1.02345e-11
1.59869e-11
1.0953e-11
1.29324e-11
1.08802e-11
9.83644e-12
1.01762e-11
6.75107e-12
8.90349e-12
4.04775e-12
6.42568e-12
2.32453e-12
2.5106e-12
6.00833e-13
-5.72618e-13
-5.34855e-12
2.21222e-12
-1.10192e-11
4.2168e-12
-1.22566e-11
6.02618e-12
-1.08199e-11
7.83046e-12
-1.02671e-11
9.6629e-12
-1.00604e-11
1.15661e-11
-9.8474e-12
1.35945e-11
-9.49284e-12
1.58644e-11
-8.86731e-12
1.84681e-11
-7.71069e-12
2.05376e-11
-5.71457e-12
2.24381e-11
-3.76511e-12
2.40113e-11
-1.37893e-12
2.50881e-11
1.36618e-12
2.54998e-11
4.34067e-12
2.51034e-11
7.34764e-12
2.38145e-11
1.0132e-11
2.16414e-11
1.24072e-11
1.86914e-11
1.39026e-11
1.51786e-11
1.43926e-11
1.15562e-11
1.37982e-11
8.07698e-12
1.23823e-11
4.94438e-12
9.55791e-12
2.72068e-12
4.73389e-12
5.75653e-13
1.572e-12
-4.77296e-12
2.45199e-12
-1.34717e-11
4.47524e-12
-1.42804e-11
6.25972e-12
-1.2605e-11
7.99664e-12
-1.20046e-11
9.70742e-12
-1.17717e-11
1.14352e-11
-1.15757e-11
1.3251e-11
-1.13091e-11
1.52356e-11
-1.08525e-11
1.75723e-11
-1.00479e-11
2.0324e-11
-8.46682e-12
2.24455e-11
-5.887e-12
2.44219e-11
-3.35584e-12
2.60261e-11
-2.38435e-13
2.70414e-11
3.32492e-12
2.72489e-11
7.13968e-12
2.64696e-11
1.09109e-11
2.46026e-11
1.42738e-11
2.16992e-11
1.68056e-11
1.79673e-11
1.81241e-11
1.38118e-11
1.79534e-11
9.86338e-12
1.63303e-11
6.06918e-12
1.33517e-11
2.97516e-12
7.82745e-12
8.28874e-13
3.71785e-12
-3.94416e-12
2.72263e-12
-1.61948e-11
4.82334e-12
-1.63817e-11
6.63554e-12
-1.44178e-11
8.34118e-12
-1.37109e-11
9.94503e-12
-1.33762e-11
1.14707e-11
-1.31021e-11
1.29712e-11
-1.28102e-11
1.45542e-11
-1.2436e-11
1.63396e-11
-1.18338e-11
1.86679e-11
-1.07957e-11
2.13958e-11
-8.61537e-12
2.36055e-11
-5.56607e-12
2.57716e-11
-2.40498e-12
2.76045e-11
1.49147e-12
2.87386e-11
6.00517e-12
2.8807e-11
1.0842e-11
2.76275e-11
1.54528e-11
2.51184e-11
1.93143e-11
2.13557e-11
2.18864e-11
1.6683e-11
2.26256e-11
1.1743e-11
2.12699e-11
7.30461e-12
1.77897e-11
3.54496e-12
1.15866e-11
9.70316e-13
6.29201e-12
-2.97393e-12
3.01992e-12
-1.92154e-11
5.25903e-12
-1.86216e-11
7.16415e-12
-1.63237e-11
8.91021e-12
-1.54577e-11
1.04977e-11
-1.49644e-11
1.19371e-11
-1.45422e-11
1.32534e-11
-1.41271e-11
1.4517e-11
-1.37003e-11
1.58919e-11
-1.32094e-11
1.75806e-11
-1.2485e-11
2.01353e-11
-1.11707e-11
2.25731e-11
-8.00439e-12
2.48457e-11
-4.67816e-12
2.70476e-11
-7.10951e-13
2.89825e-11
4.06975e-12
3.03356e-11
9.48837e-12
3.05005e-11
1.52875e-11
2.89118e-11
2.09025e-11
2.5562e-11
2.52357e-11
2.07019e-11
2.74852e-11
1.49223e-11
2.7049e-11
9.23009e-12
2.34815e-11
4.75536e-12
1.60608e-11
9.41352e-13
1.01055e-11
-2.03267e-12
3.33579e-12
-2.25519e-11
5.77277e-12
-2.10594e-11
7.84492e-12
-1.83967e-11
9.71503e-12
-1.73286e-11
1.1381e-11
-1.66312e-11
1.28574e-11
-1.60194e-11
1.41708e-11
-1.54412e-11
1.5343e-11
-1.48732e-11
1.64282e-11
-1.42954e-11
1.75577e-11
-1.36151e-11
1.91476e-11
-1.27613e-11
2.22166e-11
-1.10739e-11
2.46905e-11
-7.15264e-12
2.73208e-11
-3.34179e-12
2.97896e-11
1.60042e-12
3.16716e-11
7.6058e-12
3.26608e-11
1.42978e-11
3.25048e-11
2.1058e-11
3.04001e-11
2.73399e-11
2.58978e-11
3.19871e-11
1.96441e-11
3.33022e-11
1.27349e-11
3.03902e-11
6.9239e-12
2.18712e-11
1.48965e-12
1.55392e-11
-5.43136e-13
3.65696e-12
-2.62096e-11
6.34914e-12
-2.37525e-11
8.66084e-12
-2.07093e-11
1.07529e-11
-1.94216e-11
1.26238e-11
-1.85031e-11
1.42752e-11
-1.76717e-11
1.5709e-11
-1.68758e-11
1.69565e-11
-1.61215e-11
1.81075e-11
-1.54472e-11
1.91281e-11
-1.46364e-11
2.00534e-11
-1.36872e-11
2.17492e-11
-1.27703e-11
2.52036e-11
-1.06077e-11
2.80085e-11
-6.14721e-12
3.10956e-11
-1.4872e-12
3.40149e-11
4.68593e-12
3.61128e-11
1.21994e-11
3.66098e-11
2.05606e-11
3.51886e-11
2.87606e-11
3.16957e-11
3.54796e-11
2.5446e-11
3.95514e-11
1.72296e-11
3.86061e-11
8.96831e-12
3.0132e-11
2.26721e-12
2.22398e-11
1.72395e-12
3.96384e-12
-3.01744e-11
6.97007e-12
-2.67599e-11
9.62887e-12
-2.33693e-11
1.20771e-11
-2.1871e-11
1.43029e-11
-2.073e-11
1.62923e-11
-1.9662e-11
1.8039e-11
-1.86236e-11
1.95515e-11
-1.76349e-11
2.08655e-11
-1.6762e-11
2.21432e-11
-1.59149e-11
2.33924e-11
-1.49371e-11
2.42962e-11
-1.36748e-11
2.62766e-11
-1.25887e-11
2.99672e-11
-9.83837e-12
3.32412e-11
-4.76174e-12
3.68497e-11
1.0769e-12
4.01138e-11
8.93484e-12
4.21137e-11
1.85601e-11
4.17678e-11
2.9106e-11
3.82572e-11
3.89897e-11
3.18181e-11
4.59901e-11
2.27299e-11
4.76938e-11
1.28605e-11
4.00009e-11
3.48786e-12
3.16119e-11
5.2117e-12
4.23063e-12
-3.44061e-11
7.6048e-12
-3.01353e-11
1.07221e-11
-2.64878e-11
1.37015e-11
-2.48516e-11
1.65308e-11
-2.35605e-11
1.91807e-11
-2.23131e-11
2.1602e-11
-2.10459e-11
2.37285e-11
-1.97623e-11
2.55113e-11
-1.85456e-11
2.70107e-11
-1.74151e-11
2.8401e-11
-1.63282e-11
3.0018e-11
-1.52924e-11
3.13648e-11
-1.39362e-11
3.37408e-11
-1.22149e-11
3.74605e-11
-8.48199e-12
4.11622e-11
-2.62533e-12
4.5146e-11
4.95058e-12
4.84628e-11
1.52429e-11
4.96987e-11
2.78697e-11
4.73401e-11
4.13478e-11
4.04139e-11
5.29159e-11
2.94461e-11
5.86611e-11
1.67637e-11
5.26828e-11
4.81805e-12
4.3557e-11
1.00296e-11
4.42069e-12
-3.8828e-11
8.1884e-12
-3.39044e-11
1.18558e-11
-3.01567e-11
1.55275e-11
-2.85247e-11
1.92016e-11
-2.72359e-11
2.28538e-11
-2.59665e-11
2.64295e-11
-2.46227e-11
2.98396e-11
-2.31734e-11
3.29809e-11
-2.16878e-11
3.58021e-11
-2.02371e-11
3.81816e-11
-1.87084e-11
3.99271e-11
-1.70385e-11
4.12867e-11
-1.52964e-11
4.27284e-11
-1.36572e-11
4.55462e-11
-1.13002e-11
4.85655e-11
-5.64514e-12
5.24811e-11
1.03454e-12
5.64871e-11
1.12365e-11
5.91121e-11
2.52443e-11
5.83805e-11
4.20791e-11
5.22362e-11
5.90597e-11
3.99627e-11
7.09342e-11
2.38036e-11
6.88415e-11
7.34773e-12
6.00125e-11
1.73773e-11
4.49687e-12
-4.33262e-11
8.64813e-12
-3.80572e-11
1.2919e-11
-3.4429e-11
1.74025e-11
-3.30096e-11
2.21185e-11
-3.19533e-11
2.70631e-11
-3.09123e-11
3.21906e-11
-2.97515e-11
3.74171e-11
-2.84009e-11
4.26537e-11
-2.69254e-11
4.76174e-11
-2.52017e-11
5.1713e-11
-2.28048e-11
5.49678e-11
-2.0294e-11
5.73695e-11
-1.76987e-11
5.87526e-11
-1.50408e-11
5.95704e-11
-1.21185e-11
6.27947e-11
-8.86977e-12
6.49716e-11
-1.14277e-12
6.80519e-11
8.15586e-12
7.11458e-11
2.215e-11
7.19235e-11
4.13011e-11
6.71677e-11
6.38152e-11
5.42685e-11
8.38331e-11
3.41663e-11
8.89434e-11
1.14578e-11
8.27207e-11
2.88351e-11
4.43091e-12
-4.77585e-11
8.91853e-12
-4.25463e-11
1.37989e-11
-3.93109e-11
1.91484e-11
-3.83606e-11
2.50182e-11
-3.78245e-11
3.1456e-11
-3.73514e-11
3.84268e-11
-3.67235e-11
4.58586e-11
-3.58338e-11
5.35566e-11
-3.46244e-11
6.07694e-11
-3.24154e-11
6.76338e-11
-2.967e-11
7.38905e-11
-2.65513e-11
7.89007e-11
-2.27095e-11
8.24984e-11
-1.8639e-11
8.45669e-11
-1.41874e-11
8.42155e-11
-8.51879e-12
8.62259e-11
-3.15345e-12
8.77469e-11
6.63453e-12
8.88143e-11
2.10823e-11
8.97502e-11
4.0365e-11
8.6499e-11
6.70662e-11
7.37976e-11
9.65342e-11
4.96776e-11
1.13063e-10
1.82285e-11
1.1417e-10
4.70636e-11
4.20182e-12
-5.19616e-11
8.94674e-12
-4.72927e-11
1.44063e-11
-4.47718e-11
2.06174e-11
-4.45731e-11
2.7674e-11
-4.48825e-11
3.56472e-11
-4.53259e-11
4.46311e-11
-4.57087e-11
5.44928e-11
-4.56967e-11
6.4578e-11
-4.47107e-11
7.50004e-11
-4.28387e-11
8.53924e-11
-4.00628e-11
9.56621e-11
-3.68217e-11
1.05222e-10
-3.22698e-11
1.13196e-10
-2.66141e-11
1.18763e-10
-1.97546e-11
1.22017e-10
-1.17735e-11
1.217e-10
-2.83665e-12
1.19495e-10
8.83908e-12
1.2036e-10
2.02168e-11
1.18307e-10
4.24179e-11
1.13494e-10
7.18789e-11
1.0111e-10
1.08919e-10
7.35351e-11
1.40638e-10
2.98945e-11
1.5781e-10
7.69582e-11
3.79514e-12
-5.57578e-11
8.682e-12
-5.21807e-11
1.46094e-11
-5.07004e-11
2.15698e-11
-5.15347e-11
2.96223e-11
-5.29362e-11
3.89086e-11
-5.46135e-11
4.94068e-11
-5.62082e-11
6.10034e-11
-5.72945e-11
7.36492e-11
-5.73577e-11
8.77184e-11
-5.6909e-11
1.03067e-10
-5.54121e-11
1.18673e-10
-5.24289e-11
1.34077e-10
-4.76748e-11
1.48202e-10
-4.07396e-11
1.61023e-10
-3.25756e-11
1.70379e-10
-2.11302e-11
1.75889e-10
-8.34757e-12
1.77682e-10
7.04581e-12
1.71706e-10
2.61926e-11
1.66287e-10
4.78362e-11
1.58687e-10
7.94793e-11
1.44506e-10
1.23099e-10
1.13782e-10
1.71362e-10
5.18767e-11
2.19716e-10
1.28835e-10
3.16224e-12
-5.89208e-11
7.89887e-12
-5.69181e-11
1.40404e-11
-5.68428e-11
2.16465e-11
-5.91418e-11
3.07488e-11
-6.20397e-11
4.11756e-11
-6.50416e-11
5.286e-11
-6.78941e-11
6.54921e-11
-6.99281e-11
8.00537e-11
-7.19208e-11
9.63542e-11
-7.32109e-11
1.14372e-10
-7.3431e-11
1.34225e-10
-7.22826e-11
1.5609e-10
-6.95418e-11
1.79848e-10
-6.44976e-11
2.02902e-10
-5.56306e-11
2.24074e-10
-4.23029e-11
2.4174e-10
-2.60148e-11
2.55295e-10
-6.50954e-12
2.62074e-10
1.94131e-11
2.57425e-10
5.24847e-11
2.47907e-10
8.89967e-11
2.28369e-10
1.42638e-10
1.9447e-10
2.0526e-10
1.08926e-10
3.0526e-10
2.37761e-10
2.44229e-12
-6.13635e-11
7.14359e-12
-6.16199e-11
1.37788e-11
-6.34787e-11
2.20134e-11
-6.73773e-11
3.17647e-11
-7.17924e-11
4.30897e-11
-7.63681e-11
5.56794e-11
-8.04855e-11
7.04497e-11
-8.47003e-11
8.6954e-11
-8.84268e-11
1.05205e-10
-9.14637e-11
1.2542e-10
-9.36473e-11
1.47575e-10
-9.44392e-11
1.71856e-10
-9.38239e-11
1.98523e-10
-9.11664e-11
2.28706e-10
-8.58143e-11
2.63535e-10
-7.71326e-11
3.00316e-10
-6.27976e-11
3.35557e-10
-4.17509e-11
3.65488e-10
-1.05191e-11
3.90864e-10
2.7108e-11
4.04595e-10
7.52655e-11
3.98603e-10
1.4863e-10
3.58964e-10
2.44899e-10
2.62654e-10
4.01571e-10
5.00415e-10
1.88633e-12
-6.325e-11
6.64859e-12
-6.63825e-11
1.35373e-11
-7.0368e-11
2.22596e-11
-7.61006e-11
3.25981e-11
-8.21323e-11
4.44812e-11
-8.82529e-11
5.86861e-11
-9.46925e-11
7.47511e-11
-1.00767e-10
9.27177e-11
-1.06396e-10
1.12591e-10
-1.11339e-10
1.3437e-10
-1.15428e-10
1.5823e-10
-1.18301e-10
1.8418e-10
-1.19776e-10
2.12517e-10
-1.19505e-10
2.43392e-10
-1.16691e-10
2.77043e-10
-1.10784e-10
3.17313e-10
-1.03069e-10
3.66333e-10
-9.07715e-11
4.27846e-10
-7.20336e-11
4.93803e-10
-3.88493e-11
5.65743e-10
3.32463e-12
6.54701e-10
5.96724e-11
7.51903e-10
1.47697e-10
7.48828e-10
4.04648e-10
1.24924e-09
1.78385e-12
-6.5034e-11
6.36241e-12
-7.09614e-11
1.28297e-11
-7.6836e-11
2.08456e-11
-8.41176e-11
3.0382e-11
-9.16704e-11
4.1453e-11
-9.93259e-11
5.38106e-11
-1.07052e-10
6.75917e-11
-1.14551e-10
8.27336e-11
-1.2154e-10
9.93077e-11
-1.27916e-10
1.17249e-10
-1.33371e-10
1.36627e-10
-1.3768e-10
1.57458e-10
-1.40609e-10
1.79815e-10
-1.41864e-10
2.04132e-10
-1.4101e-10
2.31041e-10
-1.37694e-10
2.59666e-10
-1.31696e-10
2.89382e-10
-1.20489e-10
3.22366e-10
-1.05018e-10
3.6459e-10
-8.10742e-11
4.18042e-10
-5.0128e-11
4.8834e-10
-1.0625e-11
6.07832e-10
2.8206e-11
1.00008e-09
1.24054e-11
-8.02556e-11
2.32958e-09
1.71121e-12
-6.67453e-11
6.45391e-12
-7.57045e-11
1.33333e-11
-8.37162e-11
2.20371e-11
-9.28227e-11
3.24149e-11
-1.0205e-10
4.44041e-11
-1.11317e-10
5.79024e-11
-1.20553e-10
7.29313e-11
-1.29583e-10
8.95529e-11
-1.38164e-10
1.07731e-10
-1.46096e-10
1.27508e-10
-1.53151e-10
1.48949e-10
-1.59124e-10
1.72159e-10
-1.63821e-10
1.97316e-10
-1.67023e-10
2.24766e-10
-1.68461e-10
2.54914e-10
-1.67844e-10
2.87938e-10
-1.64721e-10
3.25547e-10
-1.58099e-10
3.68372e-10
-1.47844e-10
4.19473e-10
-1.32176e-10
4.84427e-10
-1.15082e-10
5.71943e-10
-9.81406e-11
6.95555e-10
-9.54053e-11
8.46744e-10
-1.38782e-10
-2.52878e-10
1.01937e-09
1.66888e-12
-6.84145e-11
6.56629e-12
-8.06024e-11
1.38109e-11
-9.09617e-11
2.30704e-11
-1.02084e-10
3.41651e-11
-1.13147e-10
4.69963e-11
-1.24151e-10
6.15117e-11
-1.35071e-10
7.76972e-11
-1.45771e-10
9.55775e-11
-1.56047e-10
1.15167e-10
-1.65689e-10
1.36516e-10
-1.74502e-10
1.59704e-10
-1.82313e-10
1.8485e-10
-1.88969e-10
2.12145e-10
-1.94319e-10
2.41878e-10
-1.98196e-10
2.74432e-10
-2.00399e-10
3.10352e-10
-2.00642e-10
3.50767e-10
-1.98515e-10
3.96697e-10
-1.93775e-10
4.50868e-10
-1.86347e-10
5.14347e-10
-1.78561e-10
5.89597e-10
-1.7339e-10
6.71968e-10
-1.77775e-10
7.33141e-10
-1.99954e-10
-2.2414e-10
7.04403e-10
1.62772e-12
-7.00425e-11
6.63848e-12
-8.56137e-11
1.41657e-11
-9.84898e-11
2.38661e-11
-1.11785e-10
3.55454e-11
-1.24828e-10
4.9088e-11
-1.37696e-10
6.44346e-11
-1.50421e-10
8.1565e-11
-1.62904e-10
1.00485e-10
-1.7497e-10
1.2122e-10
-1.86426e-10
1.43811e-10
-1.97096e-10
1.68327e-10
-2.06831e-10
1.94867e-10
-2.15512e-10
2.23579e-10
-2.23033e-10
2.5467e-10
-2.29289e-10
2.88423e-10
-2.34153e-10
3.2523e-10
-2.3745e-10
3.65667e-10
-2.38952e-10
4.10354e-10
-2.38463e-10
4.59985e-10
-2.35978e-10
5.13535e-10
-2.32111e-10
5.69085e-10
-2.2894e-10
6.14983e-10
-2.23673e-10
6.29272e-10
-2.14243e-10
-1.78373e-10
5.83505e-10
1.56434e-12
-7.16071e-11
6.6206e-12
-9.06705e-11
1.4332e-11
-1.06202e-10
2.43464e-11
-1.21801e-10
3.64564e-11
-1.3694e-10
5.0537e-11
-1.51779e-10
6.65168e-11
-1.66403e-10
8.4363e-11
-1.80753e-10
1.04067e-10
-1.94678e-10
1.25639e-10
-2.08e-10
1.491e-10
-2.2056e-10
1.7449e-10
-2.32223e-10
2.01861e-10
-2.42885e-10
2.31285e-10
-2.52459e-10
2.62853e-10
-2.60858e-10
2.96668e-10
-2.67968e-10
3.3284e-10
-2.73623e-10
3.71453e-10
-2.77565e-10
4.12432e-10
-2.79442e-10
4.55227e-10
-2.78773e-10
4.98064e-10
-2.74948e-10
5.35822e-10
-2.66697e-10
5.61786e-10
-2.49637e-10
5.62805e-10
-2.15262e-10
-1.46998e-10
5.3143e-10
1.47591e-12
-7.30832e-11
6.51673e-12
-9.57118e-11
1.4322e-11
-1.14008e-10
2.45341e-11
-1.32015e-10
3.6939e-11
-1.49347e-10
5.14008e-11
-1.66243e-10
6.78345e-11
-1.8284e-10
8.61899e-11
-1.99112e-10
1.06439e-10
-2.1493e-10
1.28568e-10
-2.30132e-10
1.5257e-10
-2.44564e-10
1.78442e-10
-2.58097e-10
2.06182e-10
-2.70626e-10
2.35776e-10
-2.82055e-10
2.67191e-10
-2.92274e-10
3.00354e-10
-3.01132e-10
3.35117e-10
-3.08387e-10
3.71198e-10
-3.13646e-10
4.08044e-10
-3.16288e-10
4.44586e-10
-3.15315e-10
4.78748e-10
-3.09109e-10
5.06926e-10
-2.94876e-10
5.24891e-10
-2.67601e-10
5.27566e-10
-2.17937e-10
-1.3482e-10
5.15387e-10
1.36413e-12
-7.44475e-11
6.33541e-12
-1.00683e-10
1.41549e-11
-1.21828e-10
2.44642e-11
-1.42326e-10
3.70448e-11
-1.61929e-10
5.17503e-11
-1.80951e-10
6.84799e-11
-1.99573e-10
8.71644e-11
-2.17799e-10
1.07754e-10
-2.35522e-10
1.30207e-10
-2.52588e-10
1.54486e-10
-2.68846e-10
1.80546e-10
-2.8416e-10
2.08329e-10
-2.98411e-10
2.37747e-10
-3.11474e-10
2.68668e-10
-3.23196e-10
3.00888e-10
-3.33354e-10
3.34098e-10
-3.41597e-10
3.67825e-10
-3.47374e-10
4.01348e-10
-3.49812e-10
4.3358e-10
-3.47547e-10
4.62937e-10
-3.38465e-10
4.87352e-10
-3.19291e-10
5.04795e-10
-2.85044e-10
5.15264e-10
-2.28406e-10
-1.41355e-10
5.21799e-10
1.2318e-12
-7.56793e-11
6.08981e-12
-1.05542e-10
1.38561e-11
-1.29595e-10
2.41775e-11
-1.52648e-10
3.68327e-11
-1.74587e-10
5.16642e-11
-1.95785e-10
6.85567e-11
-2.16468e-10
8.74218e-11
-2.36668e-10
1.08187e-10
-2.56291e-10
1.30787e-10
-2.75191e-10
1.55152e-10
-2.93214e-10
1.81203e-10
-3.10213e-10
2.08836e-10
-3.26046e-10
2.37911e-10
-3.40552e-10
2.68236e-10
-3.53522e-10
2.99539e-10
-3.64658e-10
3.31449e-10
-3.73508e-10
3.63464e-10
-3.79389e-10
3.94919e-10
-3.81267e-10
4.24983e-10
-3.77612e-10
4.52712e-10
-3.66195e-10
4.77278e-10
-3.43856e-10
4.9856e-10
-3.06326e-10
5.18432e-10
-2.48278e-10
-1.63973e-10
5.4105e-10
1.08444e-12
-7.67637e-11
5.79357e-12
-1.10251e-10
1.34528e-11
-1.37255e-10
2.37172e-11
-1.62914e-10
3.63629e-11
-1.87234e-10
5.12247e-11
-2.10649e-10
6.8173e-11
-2.33419e-10
8.71026e-11
-2.556e-10
1.07921e-10
-2.77113e-10
1.30541e-10
-2.97814e-10
1.54869e-10
-3.17544e-10
1.80799e-10
-3.36145e-10
2.08198e-10
-3.53447e-10
2.36901e-10
-3.69256e-10
2.6669e-10
-3.83312e-10
2.97286e-10
-3.95255e-10
3.28336e-10
-4.04559e-10
3.59412e-10
-4.10466e-10
3.90027e-10
-4.11883e-10
4.19693e-10
-4.07278e-10
4.48057e-10
-3.94559e-10
4.7518e-10
-3.70979e-10
5.02008e-10
-3.33154e-10
5.31059e-10
-2.77329e-10
-1.99836e-10
5.66921e-10
9.27486e-13
-7.7691e-11
5.4614e-12
-1.14785e-10
1.29719e-11
-1.44766e-10
2.31241e-11
-1.73067e-10
3.5695e-11
-1.99807e-10
5.05115e-11
-2.25468e-10
6.74337e-11
-2.50344e-10
8.6342e-11
-2.74512e-10
1.07128e-10
-2.97902e-10
1.29687e-10
-3.20376e-10
1.53909e-10
-3.41769e-10
1.79672e-10
-3.6191e-10
2.06833e-10
-3.8061e-10
2.35219e-10
-3.97644e-10
2.64623e-10
-4.12717e-10
2.94796e-10
-4.25429e-10
3.25456e-10
-4.3522e-10
3.563e-10
-4.41311e-10
3.87055e-10
-4.42637e-10
4.17557e-10
-4.3778e-10
4.47909e-10
-4.2491e-10
4.78717e-10
-4.01788e-10
5.11425e-10
-3.65863e-10
5.48666e-10
-3.14569e-10
-2.45782e-10
5.94612e-10
7.66474e-13
-7.84571e-11
5.10661e-12
-1.19125e-10
1.24383e-11
-1.52098e-10
2.24377e-11
-1.83068e-10
3.4883e-11
-2.12254e-10
4.95983e-11
-2.40186e-10
6.64346e-11
-2.67183e-10
8.52616e-11
-2.93342e-10
1.0596e-10
-3.18603e-10
1.28412e-10
-3.42831e-10
1.525e-10
-3.6586e-10
1.78096e-10
-3.87508e-10
2.05059e-10
-4.07574e-10
2.33228e-10
-4.25815e-10
2.62427e-10
-4.41917e-10
2.92461e-10
-4.55465e-10
3.23139e-10
-4.65898e-10
3.54298e-10
-4.7247e-10
3.85862e-10
-4.74202e-10
4.17932e-10
-4.6985e-10
4.50916e-10
-4.57895e-10
4.85718e-10
-4.3659e-10
5.23946e-10
-4.04091e-10
5.68091e-10
-3.58714e-10
-2.99339e-10
6.21647e-10
6.03188e-13
-7.90598e-11
4.74179e-12
-1.23263e-10
1.18748e-11
-1.59231e-10
2.16919e-11
-1.92885e-10
3.39764e-11
-2.2454e-10
4.85497e-11
-2.54761e-10
6.52584e-11
-2.83895e-10
8.39646e-11
-3.12051e-10
1.04541e-10
-3.39183e-10
1.26866e-10
-3.6516e-10
1.50818e-10
-3.89815e-10
1.76272e-10
-4.12965e-10
2.03098e-10
-4.34402e-10
2.3116e-10
-4.53879e-10
2.60321e-10
-4.71079e-10
2.90452e-10
-4.85597e-10
3.21453e-10
-4.969e-10
3.5329e-10
-5.04308e-10
3.86049e-10
-5.06961e-10
4.20016e-10
-5.03817e-10
4.55787e-10
-4.93666e-10
4.9439e-10
-4.75194e-10
5.37419e-10
-4.4712e-10
5.87106e-10
-4.08402e-10
-3.58536e-10
6.46302e-10
4.44995e-13
-7.95042e-11
4.37785e-12
-1.27196e-10
1.13007e-11
-1.66154e-10
2.09168e-11
-2.02502e-10
3.30153e-11
-2.3664e-10
4.74194e-11
-2.69168e-10
6.39724e-11
-3.00451e-10
8.25328e-11
-3.30615e-10
1.0297e-10
-3.59624e-10
1.25161e-10
-3.87354e-10
1.48987e-10
-4.13643e-10
1.74332e-10
-4.38312e-10
2.01083e-10
-4.61155e-10
2.29132e-10
-4.8193e-10
2.58388e-10
-5.00336e-10
2.88782e-10
-5.15992e-10
3.20299e-10
-5.28418e-10
3.53007e-10
-5.37017e-10
3.87111e-10
-5.41066e-10
4.23017e-10
-5.39723e-10
4.61411e-10
-5.32059e-10
5.03342e-10
-5.17126e-10
5.50293e-10
-4.94072e-10
6.04203e-10
-4.62311e-10
-4.21736e-10
6.67402e-10
2.91865e-13
-7.97954e-11
4.02342e-12
-1.30927e-10
1.07316e-11
-1.72863e-10
2.01353e-11
-2.11907e-10
3.20326e-11
-2.48539e-10
4.62488e-11
-2.83386e-10
6.26276e-11
-3.16832e-10
8.10266e-11
-3.49017e-10
1.01315e-10
-3.79915e-10
1.23372e-10
-4.09414e-10
1.47084e-10
-4.37359e-10
1.72348e-10
-4.63579e-10
1.99071e-10
-4.8788e-10
2.27175e-10
-5.10036e-10
2.56608e-10
-5.2977e-10
2.87358e-10
-5.46743e-10
3.19476e-10
-5.60537e-10
3.53107e-10
-5.70648e-10
3.88532e-10
-5.76492e-10
4.2622e-10
-5.77412e-10
4.66883e-10
-5.72723e-10
5.11527e-10
-5.6177e-10
5.61483e-10
-5.44028e-10
6.184e-10
-5.19229e-10
-4.87511e-10
6.84175e-10
1.50824e-13
-7.99454e-11
3.68525e-12
-1.3446e-10
1.01788e-11
-1.79356e-10
1.93652e-11
-2.21094e-10
3.10513e-11
-2.60227e-10
4.50678e-11
-2.97405e-10
6.12596e-11
-3.33027e-10
7.94856e-11
-3.67246e-10
9.96176e-11
-4.00051e-10
1.21539e-10
-4.31338e-10
1.45145e-10
-4.60968e-10
1.70345e-10
-4.88781e-10
1.97065e-10
-5.14602e-10
2.25256e-10
-5.38228e-10
2.549e-10
-5.59415e-10
2.86028e-10
-5.77872e-10
3.18741e-10
-5.9325e-10
3.53233e-10
-6.05141e-10
3.89829e-10
-6.13088e-10
4.29019e-10
-6.16602e-10
4.71496e-10
-6.152e-10
5.18184e-10
-6.08458e-10
5.7025e-10
-5.96094e-10
6.29079e-10
-5.78058e-10
-5.54641e-10
6.96208e-10
2.10013e-14
-7.99654e-11
3.36776e-12
-1.37806e-10
9.6502e-12
-1.85638e-10
1.86177e-11
-2.30062e-10
3.00875e-11
-2.71698e-10
4.3895e-11
-3.11215e-10
5.98893e-11
-3.49024e-10
7.79321e-11
-3.85292e-10
9.78984e-11
-4.2002e-10
1.19678e-10
-4.5312e-10
1.43174e-10
-4.84467e-10
1.6831e-10
-5.13919e-10
1.95029e-10
-5.41323e-10
2.23303e-10
-5.66504e-10
2.53143e-10
-5.89257e-10
2.84611e-10
-6.09342e-10
3.1784e-10
-6.26479e-10
3.53052e-10
-6.40353e-10
3.90585e-10
-6.50622e-10
4.30922e-10
-6.5694e-10
4.7471e-10
-6.58988e-10
5.22774e-10
-6.56523e-10
5.76116e-10
-6.49437e-10
6.35888e-10
-6.3783e-10
-6.22079e-10
7.03326e-10
-9.55753e-14
-7.98687e-11
3.0732e-12
-1.40974e-10
9.15018e-12
-1.91715e-10
1.78999e-11
-2.38812e-10
2.91489e-11
-2.82948e-10
4.27401e-11
-3.24808e-10
5.85264e-11
-3.64813e-10
7.63732e-11
-4.03142e-10
9.61605e-11
-4.39811e-10
1.17783e-10
-4.74746e-10
1.41155e-10
-5.07841e-10
1.66208e-10
-5.38975e-10
1.929e-10
-5.68018e-10
2.21222e-10
-5.94827e-10
2.51202e-10
-6.19239e-10
2.82924e-10
-6.41065e-10
3.16535e-10
-6.60091e-10
3.52268e-10
-6.76087e-10
3.90456e-10
-6.88811e-10
4.31551e-10
-6.98036e-10
4.76138e-10
-7.03575e-10
5.24938e-10
-7.05323e-10
5.78798e-10
-7.03297e-10
6.38662e-10
-6.97695e-10
-6.88939e-10
7.0552e-10
-1.98954e-13
-7.96685e-11
2.80319e-12
-1.43975e-10
8.68088e-12
-1.97592e-10
1.72136e-11
-2.47345e-10
2.82389e-11
-2.93975e-10
4.16051e-11
-3.38176e-10
5.71708e-11
-3.80381e-10
7.48058e-11
-4.2078e-10
9.43941e-11
-4.59402e-10
1.15837e-10
-4.96193e-10
1.39055e-10
-5.31062e-10
1.63989e-10
-5.63911e-10
1.90608e-10
-5.94639e-10
2.18914e-10
-6.23134e-10
2.48947e-10
-6.49273e-10
2.80798e-10
-6.72917e-10
3.14621e-10
-6.93915e-10
3.50643e-10
-7.12109e-10
3.89176e-10
-7.27344e-10
4.30631e-10
-7.39491e-10
4.75523e-10
-7.48467e-10
5.24465e-10
-7.54266e-10
5.78164e-10
-7.56996e-10
6.37384e-10
-7.56915e-10
-7.54464e-10
7.02909e-10
-2.88186e-13
-7.93789e-11
2.55733e-12
-1.46819e-10
8.24174e-12
-2.03275e-10
1.65588e-11
-2.55662e-10
2.7355e-11
-3.04772e-10
4.04867e-11
-3.5131e-10
5.58166e-11
-3.95714e-10
7.32189e-11
-4.38186e-10
9.25825e-11
-4.78769e-10
1.13813e-10
-5.17426e-10
1.36837e-10
-5.54088e-10
1.61601e-10
-5.88678e-10
1.88082e-10
-6.21122e-10
2.16286e-10
-6.5134e-10
2.46258e-10
-6.79247e-10
2.78092e-10
-7.04752e-10
3.11934e-10
-7.27758e-10
3.47995e-10
-7.48171e-10
3.86559e-10
-7.65909e-10
4.27986e-10
-7.80919e-10
4.72717e-10
-7.93198e-10
5.21265e-10
-8.02815e-10
5.74207e-10
-8.09938e-10
6.3215e-10
-8.14859e-10
-8.18021e-10
6.95707e-10
-3.63578e-13
-7.90139e-11
2.3353e-12
-1.49517e-10
7.83116e-12
-2.08771e-10
1.59317e-11
-2.63763e-10
2.64933e-11
-3.15335e-10
3.93778e-11
-3.64196e-10
5.44534e-11
-4.10792e-10
7.15983e-11
-4.55334e-10
9.07048e-11
-4.97879e-10
1.11683e-10
-5.38407e-10
1.34462e-10
-5.7687e-10
1.58993e-10
-6.13213e-10
1.85256e-10
-6.47386e-10
2.13257e-10
-6.79343e-10
2.43042e-10
-7.09033e-10
2.74697e-10
-7.36407e-10
3.08355e-10
-7.61417e-10
3.44204e-10
-7.84021e-10
3.82492e-10
-8.04197e-10
4.23525e-10
-8.21953e-10
4.67672e-10
-8.37345e-10
5.15351e-10
-8.50494e-10
5.6702e-10
-8.61607e-10
6.23155e-10
-8.70994e-10
-8.79082e-10
6.84216e-10
-4.22524e-13
-7.85897e-11
2.13504e-12
-1.52073e-10
7.44573e-12
-2.1408e-10
1.53284e-11
-2.71645e-10
2.56469e-11
-3.25654e-10
3.82699e-11
-3.76821e-10
5.30697e-11
-4.25595e-10
6.9928e-11
-4.72195e-10
8.87405e-11
-5.16695e-10
1.09419e-10
-5.59089e-10
1.31896e-10
-5.99349e-10
1.56123e-10
-6.37442e-10
1.82078e-10
-6.73344e-10
2.09768e-10
-7.07034e-10
2.3923e-10
-7.38497e-10
2.70539e-10
-7.67717e-10
3.03811e-10
-7.94689e-10
3.39205e-10
-8.19416e-10
3.76929e-10
-8.41921e-10
4.17236e-10
-8.6226e-10
4.60423e-10
-8.80532e-10
5.06821e-10
-8.96893e-10
5.56784e-10
-9.11571e-10
6.10669e-10
-9.24879e-10
-9.37224e-10
6.6881e-10
-4.77773e-13
-7.81102e-11
1.95237e-12
-1.54501e-10
7.08183e-12
-2.19209e-10
1.47431e-11
-2.79307e-10
2.48093e-11
-3.35721e-10
3.71539e-11
-3.89168e-10
5.16538e-11
-4.40097e-10
6.81937e-11
-4.88738e-10
8.66711e-11
-5.35175e-10
1.07e-10
-5.79421e-10
1.29111e-10
-6.21463e-10
1.52958e-10
-6.61291e-10
1.78514e-10
-6.98902e-10
2.05779e-10
-7.34301e-10
2.34782e-10
-7.67501e-10
2.65582e-10
-7.98519e-10
2.98274e-10
-8.27381e-10
3.32986e-10
-8.54128e-10
3.69885e-10
-8.7882e-10
4.09171e-10
-9.01546e-10
4.51073e-10
-9.22435e-10
4.95844e-10
-9.41664e-10
5.43745e-10
-9.59472e-10
5.95028e-10
-9.76163e-10
-9.92115e-10
6.49919e-10
-5.20045e-13
-7.75882e-11
1.78652e-12
-1.56806e-10
6.73568e-12
-2.24157e-10
1.41713e-11
-2.86742e-10
2.39733e-11
-3.45524e-10
3.60216e-11
-4.01218e-10
5.01959e-11
-4.54274e-10
6.63833e-11
-5.04929e-10
8.4483e-11
-5.53278e-10
1.04409e-10
-5.9935e-10
1.26091e-10
-6.43148e-10
1.49478e-10
-6.84681e-10
1.74541e-10
-7.23967e-10
2.01271e-10
-7.61033e-10
2.29684e-10
-7.95915e-10
2.59821e-10
-8.28657e-10
2.91754e-10
-8.59315e-10
3.25579e-10
-8.87954e-10
3.61423e-10
-9.14664e-10
3.99434e-10
-9.39558e-10
4.39781e-10
-9.62782e-10
4.82643e-10
-9.84527e-10
5.282e-10
-1.00503e-09
5.76615e-10
-1.02458e-09
-1.04352e-09
6.28018e-10
-5.52949e-13
-7.70332e-11
1.63553e-12
-1.58992e-10
6.40416e-12
-2.28924e-10
1.36078e-11
-2.93945e-10
2.3134e-11
-3.55051e-10
3.48662e-11
-4.12952e-10
4.86883e-11
-4.68099e-10
6.44889e-11
-5.20732e-10
8.21674e-11
-5.7096e-10
1.01637e-10
-6.18822e-10
1.22826e-10
-6.6434e-10
1.45679e-10
-7.07537e-10
1.70159e-10
-7.48449e-10
1.96248e-10
-7.87123e-10
2.23948e-10
-8.23616e-10
2.53281e-10
-8.57992e-10
2.84295e-10
-8.90329e-10
3.17055e-10
-9.20715e-10
3.51647e-10
-9.49257e-10
3.88174e-10
-9.76085e-10
4.26747e-10
-1.00136e-09
4.67482e-10
-1.02526e-09
5.10486e-10
-1.04803e-09
5.55844e-10
-1.06994e-09
-1.09128e-09
6.03606e-10
-5.77032e-13
-7.6454e-11
1.49683e-12
-1.61064e-10
6.08386e-12
-2.33509e-10
1.30493e-11
-3.0091e-10
2.22862e-11
-3.64288e-10
3.36835e-11
-4.24351e-10
4.71268e-11
-4.81545e-10
6.25064e-11
-5.36115e-10
7.97218e-11
-5.88178e-10
9.86842e-11
-6.37788e-10
1.19319e-10
-6.84978e-10
1.41566e-10
-7.29786e-10
1.6538e-10
-7.72265e-10
1.90731e-10
-8.12476e-10
2.17607e-10
-8.50493e-10
2.46013e-10
-8.86399e-10
2.7597e-10
-9.20286e-10
3.07513e-10
-9.52259e-10
3.40694e-10
-9.82437e-10
3.75569e-10
-1.01096e-09
4.12202e-10
-1.03799e-09
4.50651e-10
-1.06371e-09
4.90959e-10
-1.08834e-09
5.33146e-10
-1.11212e-09
-1.13533e-09
5.77193e-10
-5.93891e-13
-7.58578e-11
1.36871e-12
-1.63024e-10
5.77243e-12
-2.37912e-10
1.24923e-11
-3.07629e-10
2.1428e-11
-3.73225e-10
3.24711e-11
-4.35396e-10
4.55103e-11
-4.94586e-10
6.04367e-11
-5.51044e-10
7.7149e-11
-6.04894e-10
9.55569e-11
-6.56199e-10
1.15582e-10
-7.05005e-10
1.37157e-10
-7.51364e-10
1.60229e-10
-7.95339e-10
1.84757e-10
-8.37006e-10
2.10715e-10
-8.76452e-10
2.38087e-10
-9.13772e-10
2.66872e-10
-9.49072e-10
2.97078e-10
-9.82465e-10
3.28721e-10
-1.01408e-09
3.61821e-10
-1.04406e-09
3.96395e-10
-1.07256e-09
4.32452e-10
-1.09977e-09
4.69983e-10
-1.12587e-09
5.08952e-10
-1.15109e-09
-1.17566e-09
5.49281e-10
-6.04464e-13
-7.52509e-11
1.24891e-12
-1.64875e-10
5.46759e-12
-2.42129e-10
1.19357e-11
-3.14097e-10
2.05575e-11
-3.81847e-10
3.12293e-11
-4.46069e-10
4.38411e-11
-5.072e-10
5.82846e-11
-5.65491e-10
7.44581e-11
-6.21071e-10
9.22685e-11
-6.74012e-10
1.11633e-10
-7.24373e-10
1.32479e-10
-7.72212e-10
1.54744e-10
-8.17606e-10
1.78377e-10
-8.6064e-10
2.03336e-10
-9.01412e-10
2.29589e-10
-9.40026e-10
2.57112e-10
-9.76595e-10
2.85888e-10
-1.01124e-09
3.15902e-10
-1.0441e-09
3.4714e-10
-1.0753e-09
3.79581e-10
-1.10501e-09
4.13192e-10
-1.13338e-09
4.4792e-10
-1.1606e-09
4.83681e-10
-1.18685e-09
-1.21233e-09
5.20353e-10
-6.1281e-13
-7.46355e-11
1.13595e-12
-1.66621e-10
5.16834e-12
-2.46159e-10
1.13782e-11
-3.20306e-10
1.96761e-11
-3.90145e-10
2.99606e-11
-4.56355e-10
4.21243e-11
-5.19366e-10
5.60592e-11
-5.79429e-10
7.16623e-11
-6.36677e-10
8.88383e-11
-6.91192e-10
1.075e-10
-7.43037e-10
1.27568e-10
-7.92283e-10
1.48973e-10
-8.39013e-10
1.71652e-10
-8.83321e-10
1.95549e-10
-9.25311e-10
2.20616e-10
-9.65094e-10
2.4681e-10
-1.00279e-09
2.7409e-10
-1.03852e-09
3.02415e-10
-1.07242e-09
3.31742e-10
-1.10463e-09
3.62016e-10
-1.13528e-09
3.9317e-10
-1.16453e-09
4.25115e-10
-1.19255e-09
4.5773e-10
-1.21947e-09
-1.24546e-09
4.90857e-10