/*--------------------------------*- C++ -*----------------------------------*\
  =========                 |
  \\      /  F ield         | OpenFOAM: The Open Source CFD Toolbox
   \\    /   O peration     | Website:  https://openfoam.org
    \\  /    A nd           | Version:  13
     \\/     M anipulation  |
\*---------------------------------------------------------------------------*/
FoamFile
{
    format      ascii;
    class       surfaceScalarField;
    location    "7";
    object      phi;
}
// * * * * * * * * * * * * * * * * * * * * * * * * * * * * * * * * * * * * * //

dimensions      [0 3 -1 0 0 0 0];

internalField   nonuniform List<scalar> 
12590
(
5.20056e-09
-1.52376e-08
2.50201e-08
-3.30709e-08
5.20356e-08
-3.43338e-08
6.96946e-08
-2.95212e-08
8.83886e-08
-2.40706e-08
9.89649e-08
-2.17161e-08
1.15048e-07
-2.0399e-08
1.2569e-07
-2.15032e-08
1.44987e-07
-2.23061e-08
1.59642e-07
-2.47674e-08
1.83641e-07
-2.65615e-08
2.04341e-07
-2.94668e-08
2.34194e-07
-3.14694e-08
2.60242e-07
-3.31684e-08
2.91658e-07
-3.22302e-08
3.15932e-07
-2.94688e-08
3.38357e-07
-2.24505e-08
3.46923e-07
-1.19099e-08
3.44984e-07
2.27654e-09
3.25246e-07
1.62532e-08
2.91948e-07
3.30684e-08
2.33755e-07
5.02668e-08
1.65601e-07
6.65424e-08
7.83709e-08
7.46925e-08
7.56264e-08
1.0455e-08
-3.59114e-08
3.33462e-08
-6.65968e-08
5.54438e-08
-6.49986e-08
7.21032e-08
-5.53693e-08
8.69658e-08
-4.71713e-08
9.89867e-08
-4.25576e-08
1.12686e-07
-4.10949e-08
1.25632e-07
-4.23284e-08
1.42229e-07
-4.48053e-08
1.5893e-07
-4.86477e-08
1.80878e-07
-5.27702e-08
2.03728e-07
-5.86851e-08
2.32954e-07
-6.41066e-08
2.63999e-07
-6.88325e-08
2.99844e-07
-7.05672e-08
3.3414e-07
-6.69494e-08
3.65908e-07
-5.55909e-08
3.87427e-07
-3.54447e-08
3.94408e-07
-6.06707e-09
3.8085e-07
2.79454e-08
3.46489e-07
6.5123e-08
2.92522e-07
1.04002e-07
2.08336e-07
1.39575e-07
1.06606e-07
1.72263e-07
1.79233e-07
1.2273e-08
-5.79331e-08
2.58875e-08
-9.0149e-08
3.41288e-08
-8.24984e-08
3.82468e-08
-7.04416e-08
4.40435e-08
-6.21924e-08
4.9899e-08
-5.85434e-08
5.90346e-08
-5.91291e-08
6.973e-08
-6.14966e-08
8.34248e-08
-6.61525e-08
9.93227e-08
-7.12557e-08
1.18157e-07
-7.86517e-08
1.41743e-07
-8.81614e-08
1.72705e-07
-9.94384e-08
2.07832e-07
-1.08478e-07
2.48122e-07
-1.13288e-07
2.89672e-07
-1.11216e-07
3.3042e-07
-9.79275e-08
3.62168e-07
-6.90746e-08
3.76369e-07
-2.15339e-08
3.66339e-07
3.56173e-08
3.35038e-07
9.5662e-08
2.75623e-07
1.56529e-07
2.0031e-07
2.18242e-07
9.75686e-08
2.65534e-07
2.76314e-07
6.67692e-09
-7.38697e-08
2.4698e-09
-9.72462e-08
-7.197e-09
-8.2338e-08
-1.95862e-08
-6.90246e-08
-2.61385e-08
-6.34037e-08
-2.96311e-08
-6.48603e-08
-2.34614e-08
-7.09158e-08
-1.35971e-08
-8.04106e-08
6.19362e-09
-9.15395e-08
2.90773e-08
-1.03642e-07
5.86264e-08
-1.14891e-07
8.70299e-08
-1.24492e-07
1.17418e-07
-1.35829e-07
1.51083e-07
-1.46645e-07
1.91463e-07
-1.56907e-07
2.385e-07
-1.61225e-07
2.8779e-07
-1.48433e-07
3.29521e-07
-1.11943e-07
3.51634e-07
-4.39889e-08
3.43231e-07
4.42564e-08
3.09978e-07
1.28007e-07
2.57034e-07
2.14702e-07
1.73845e-07
2.90518e-07
8.50579e-08
3.56205e-07
3.59895e-07
-8.57033e-09
-7.48748e-08
-3.21382e-08
-8.34952e-08
-5.7699e-08
-6.51222e-08
-8.02061e-08
-5.47985e-08
-9.57763e-08
-5.38407e-08
-1.06731e-07
-6.02096e-08
-1.10671e-07
-7.17618e-08
-1.10055e-07
-8.67546e-08
-1.0147e-07
-1.04196e-07
-8.77103e-08
-1.23735e-07
-6.21826e-08
-1.44866e-07
-2.63769e-08
-1.6745e-07
2.27108e-08
-1.89827e-07
7.62686e-08
-2.06495e-07
1.29982e-07
-2.15637e-07
1.82675e-07
-2.16973e-07
2.36899e-07
-2.04455e-07
2.89262e-07
-1.64847e-07
3.21961e-07
-7.63775e-08
3.12275e-07
5.4249e-08
2.84023e-07
1.58177e-07
2.23784e-07
2.68759e-07
1.54246e-07
3.68087e-07
6.74263e-08
4.36367e-07
4.27798e-07
-2.40846e-08
-6.0774e-08
-6.05789e-08
-5.71492e-08
-9.60426e-08
-3.70812e-08
-1.27647e-07
-2.995e-08
-1.52705e-07
-3.39436e-08
-1.72789e-07
-4.54467e-08
-1.85718e-07
-6.23819e-08
-1.93142e-07
-8.37263e-08
-1.92641e-07
-1.08127e-07
-1.85899e-07
-1.35015e-07
-1.69665e-07
-1.64739e-07
-1.45241e-07
-1.9729e-07
-1.07836e-07
-2.31168e-07
-5.66572e-08
-2.63512e-07
1.32453e-08
-2.89661e-07
9.18337e-08
-3.00019e-07
1.68931e-07
-2.84761e-07
2.35969e-07
-2.33267e-07
2.81424e-07
-1.22591e-07
2.71644e-07
6.48458e-08
2.44491e-07
1.84457e-07
1.95656e-07
3.23239e-07
1.2198e-07
4.31245e-07
5.36952e-08
5.0878e-07
4.80476e-07
-3.59457e-08
-3.5503e-08
-8.35541e-08
-1.82354e-08
-1.29217e-07
2.35497e-09
-1.7053e-07
5.6739e-09
-2.05288e-07
-3.36384e-09
-2.34202e-07
-2.08806e-08
-2.55756e-07
-4.43096e-08
-2.71243e-07
-7.20126e-08
-2.78848e-07
-1.03098e-07
-2.80391e-07
-1.37228e-07
-2.73211e-07
-1.74817e-07
-2.58074e-07
-2.16484e-07
-2.31047e-07
-2.61497e-07
-1.91798e-07
-3.07205e-07
-1.35808e-07
-3.49195e-07
-6.04557e-08
-3.79927e-07
3.78812e-08
-3.85823e-07
1.42044e-07
-3.4072e-07
2.25869e-07
-2.08727e-07
2.35996e-07
5.24934e-08
2.01992e-07
2.19093e-07
1.52604e-07
3.6636e-07
1.00343e-07
4.92234e-07
3.86064e-08
5.65264e-07
5.20622e-07
-4.50335e-08
5.65042e-10
-1.0262e-07
3.19942e-08
-1.56529e-07
5.12718e-08
-2.0665e-07
5.11794e-08
-2.51489e-07
3.77952e-08
-2.90495e-07
1.41775e-08
-3.2113e-07
-1.65177e-08
-3.45318e-07
-5.12696e-08
-3.62181e-07
-8.89183e-08
-3.72885e-07
-1.29607e-07
-3.75691e-07
-1.74313e-07
-3.71039e-07
-2.24428e-07
-3.55249e-07
-2.79725e-07
-3.27757e-07
-3.38112e-07
-2.84391e-07
-3.95392e-07
-2.22919e-07
-4.44472e-07
-1.38859e-07
-4.72554e-07
-2.75818e-08
-4.55394e-07
1.03844e-07
-3.43359e-07
2.01285e-07
-4.67191e-08
1.53638e-07
2.65555e-07
1.2289e-07
4.02243e-07
7.20461e-08
5.34589e-07
3.02449e-08
6.13619e-07
5.51188e-07
-5.25057e-08
4.55229e-08
-1.16509e-07
9.04137e-08
-1.77409e-07
1.07754e-07
-2.35576e-07
1.05254e-07
-2.89663e-07
8.86934e-08
-3.38907e-07
6.01131e-08
-3.80702e-07
2.23437e-08
-4.1498e-07
-2.01557e-08
-4.41721e-07
-6.44596e-08
-4.62956e-07
-1.11367e-07
-4.7668e-07
-1.62686e-07
-4.83398e-07
-2.20309e-07
-4.8e-07
-2.84965e-07
-4.65328e-07
-3.5521e-07
-4.35324e-07
-4.27305e-07
-3.87342e-07
-4.94626e-07
-3.16711e-07
-5.45489e-07
-2.17694e-07
-5.57014e-07
-7.98722e-08
-4.84297e-07
1.09904e-07
-2.37715e-07
1.43169e-07
2.31732e-07
9.64093e-08
4.44285e-07
6.17114e-08
5.78412e-07
2.28389e-08
6.50944e-07
5.76229e-07
-5.75723e-08
9.69186e-08
-1.26615e-07
1.5406e-07
-1.92867e-07
1.70138e-07
-2.5758e-07
1.6636e-07
-3.19773e-07
1.4785e-07
-3.78714e-07
1.15923e-07
-4.31844e-07
7.31555e-08
-4.78366e-07
2.34972e-08
-5.16933e-07
-2.85197e-08
-5.48949e-07
-8.18821e-08
-5.74137e-07
-1.39324e-07
-5.92946e-07
-2.03778e-07
-6.02441e-07
-2.76858e-07
-6.013e-07
-3.5817e-07
-5.85236e-07
-4.44423e-07
-5.51562e-07
-5.29785e-07
-4.94742e-07
-6.03855e-07
-4.07722e-07
-6.46461e-07
-2.76355e-07
-6.17277e-07
-7.82592e-08
-4.37196e-07
1.12297e-07
3.77214e-08
8.60184e-08
4.74603e-07
4.78918e-08
6.11222e-07
1.97245e-08
6.8525e-07
5.97498e-07
-6.16438e-08
1.52557e-07
-1.32957e-07
2.21015e-07
-2.03048e-07
2.36419e-07
-2.72705e-07
2.32563e-07
-3.41407e-07
2.13805e-07
-4.08768e-07
1.80597e-07
-4.72967e-07
1.34791e-07
-5.32334e-07
8.02673e-08
-5.84036e-07
2.1231e-08
-6.2872e-07
-3.98354e-08
-6.66139e-07
-1.03799e-07
-6.97244e-07
-1.74495e-07
-7.19909e-07
-2.55348e-07
-7.32335e-07
-3.47044e-07
-7.3029e-07
-4.47106e-07
-7.10687e-07
-5.50329e-07
-6.67796e-07
-6.47598e-07
-5.94121e-07
-7.21724e-07
-4.74769e-07
-7.37689e-07
-2.88806e-07
-6.25192e-07
1.24638e-09
-2.53599e-07
8.2624e-08
3.86676e-07
4.81763e-08
6.50079e-07
1.89473e-08
7.16676e-07
6.17453e-07
-6.29124e-08
2.10053e-07
-1.35676e-07
2.88846e-07
-2.07717e-07
3.04825e-07
-2.80567e-07
3.02102e-07
-3.54321e-07
2.84727e-07
-4.29031e-07
2.52578e-07
-5.02994e-07
2.06732e-07
-5.74715e-07
1.4962e-07
-6.40898e-07
8.50244e-08
-6.99464e-07
1.66251e-08
-7.50335e-07
-5.46606e-08
-7.94719e-07
-1.31945e-07
-8.30966e-07
-2.20118e-07
-8.57188e-07
-3.21844e-07
-8.68996e-07
-4.35766e-07
-8.62656e-07
-5.57291e-07
-8.32436e-07
-6.7839e-07
-7.70488e-07
-7.84497e-07
-6.6264e-07
-8.46377e-07
-4.85378e-07
-8.03582e-07
-2.04359e-07
-5.37523e-07
5.68671e-08
1.23751e-07
3.81616e-08
6.67738e-07
1.59238e-08
7.39886e-07
6.35459e-07
-6.16581e-08
2.65622e-07
-1.33909e-07
3.56765e-07
-2.06585e-07
3.73531e-07
-2.81019e-07
3.73084e-07
-3.58059e-07
3.59046e-07
-4.38412e-07
3.30471e-07
-5.21328e-07
2.87229e-07
-6.04742e-07
2.30813e-07
-6.84996e-07
1.63649e-07
-7.59332e-07
8.86085e-08
-8.25229e-07
9.34251e-09
-8.84077e-07
-7.4737e-08
-9.35209e-07
-1.70013e-07
-9.76233e-07
-2.81769e-07
-1.00244e-06
-4.0997e-07
-1.00946e-06
-5.50902e-07
-9.91157e-07
-6.97081e-07
-9.39946e-07
-8.36197e-07
-8.43269e-07
-9.43752e-07
-6.80131e-07
-9.67527e-07
-4.21044e-07
-7.9816e-07
-5.10035e-08
-2.47695e-07
2.69921e-08
5.86174e-07
1.93261e-08
7.52774e-07
6.53806e-07
-5.77161e-08
3.17652e-07
-1.2824e-07
4.22195e-07
-1.99474e-07
4.40885e-07
-2.73579e-07
4.43895e-07
-3.52183e-07
4.34859e-07
-4.36638e-07
4.12455e-07
-5.26523e-07
3.75296e-07
-6.20503e-07
3.22835e-07
-7.15077e-07
2.55878e-07
-8.05785e-07
1.7745e-07
-8.88847e-07
9.04364e-08
-9.63787e-07
-1.53279e-09
-1.03155e-06
-1.03609e-07
-1.08921e-06
-2.24959e-07
-1.13151e-06
-3.68297e-07
-1.15314e-06
-5.29684e-07
-1.14774e-06
-7.02845e-07
-1.10767e-06
-8.76718e-07
-1.02076e-06
-1.03075e-06
-8.67445e-07
-1.12121e-06
-6.15202e-07
-1.05038e-06
-2.39463e-07
-6.26275e-07
4.69198e-08
3.06652e-07
3.15578e-08
7.63387e-07
6.85717e-07
-5.19304e-08
3.64239e-07
-1.18222e-07
4.84491e-07
-1.86212e-07
5.05425e-07
-2.58232e-07
5.12893e-07
-3.36346e-07
5.1075e-07
-4.22785e-07
4.96636e-07
-5.17962e-07
4.68352e-07
-6.21075e-07
4.23482e-07
-7.28149e-07
3.61217e-07
-8.35891e-07
2.82355e-07
-9.37922e-07
1.90541e-07
-1.03158e-06
8.97541e-08
-1.11641e-06
-2.00189e-08
-1.19296e-06
-1.49723e-07
-1.25299e-06
-3.08547e-07
-1.29165e-06
-4.91592e-07
-1.30148e-06
-6.93193e-07
-1.27533e-06
-9.02865e-07
-1.20229e-06
-1.10365e-06
-1.06389e-06
-1.25885e-06
-8.28018e-07
-1.28613e-06
-4.54809e-07
-9.97381e-07
-5.88264e-09
-1.48917e-07
2.82752e-08
7.3358e-07
7.12012e-07
-4.36953e-08
3.99927e-07
-1.04324e-07
5.39558e-07
-1.66841e-07
5.63476e-07
-2.34601e-07
5.76884e-07
-3.10616e-07
5.82733e-07
-3.96769e-07
5.79665e-07
-4.94709e-07
5.63512e-07
-6.03989e-07
5.29607e-07
-7.22068e-07
4.76454e-07
-8.44728e-07
4.01399e-07
-9.65902e-07
3.09861e-07
-1.08085e-06
2.00969e-07
-1.1842e-06
8.28307e-08
-1.27959e-06
-5.7098e-08
-1.35876e-06
-2.28777e-07
-1.41578e-06
-4.36057e-07
-1.44236e-06
-6.65783e-07
-1.43358e-06
-9.12224e-07
-1.37884e-06
-1.15735e-06
-1.26398e-06
-1.37306e-06
-1.05588e-06
-1.49388e-06
-6.98475e-07
-1.35531e-06
-1.91099e-07
-6.50811e-07
4.7834e-09
5.30354e-07
7.15645e-07
-3.28378e-08
4.23173e-07
-8.49448e-08
5.82521e-07
-1.40659e-07
6.10725e-07
-2.03101e-07
6.30754e-07
-2.74217e-07
6.48113e-07
-3.58208e-07
6.57572e-07
-4.56896e-07
6.55326e-07
-5.68395e-07
6.37474e-07
-6.9474e-07
5.95301e-07
-8.26657e-07
5.32281e-07
-9.6688e-07
4.4162e-07
-1.0995e-06
3.35345e-07
-1.22847e-06
2.02726e-07
-1.33778e-06
5.60678e-08
-1.43859e-06
-1.34679e-07
-1.50983e-06
-3.61731e-07
-1.55497e-06
-6.23903e-07
-1.56257e-06
-9.03273e-07
-1.53014e-06
-1.18908e-06
-1.44748e-06
-1.45672e-06
-1.28436e-06
-1.65341e-06
-9.80006e-07
-1.65991e-06
-4.44903e-07
-1.18798e-06
3.92622e-08
4.28559e-08
7.53943e-07
-2.11582e-08
4.22606e-07
-6.08958e-08
6.07479e-07
-1.08088e-07
6.44685e-07
-1.61118e-07
6.74918e-07
-2.27681e-07
7.01399e-07
-3.07528e-07
7.26465e-07
-4.01738e-07
7.41717e-07
-5.1485e-07
7.38999e-07
-6.39313e-07
7.15808e-07
-7.82175e-07
6.63774e-07
-9.2815e-07
5.8815e-07
-1.08584e-06
4.79345e-07
-1.2279e-06
3.48561e-07
-1.36376e-06
1.7993e-07
-1.47255e-06
-2.12322e-08
-1.56316e-06
-2.77646e-07
-1.61835e-06
-5.66188e-07
-1.64155e-06
-8.80093e-07
-1.6305e-06
-1.20095e-06
-1.57834e-06
-1.50341e-06
-1.47823e-06
-1.75643e-06
-1.26434e-06
-1.86959e-06
-7.97004e-07
-1.65745e-06
-1.11651e-07
-6.42695e-07
6.37523e-07
-3.383e-09
4.11518e-07
-3.11198e-08
6.21481e-07
-6.56821e-08
6.68889e-07
-1.12525e-07
7.04896e-07
-1.68635e-07
7.47609e-07
-2.42153e-07
7.86193e-07
-3.32561e-07
8.18065e-07
-4.38975e-07
8.35733e-07
-5.6454e-07
8.3059e-07
-7.04428e-07
7.9877e-07
-8.6138e-07
7.33663e-07
-1.02002e-06
6.36711e-07
-1.1819e-06
4.99353e-07
-1.32586e-06
3.25174e-07
-1.45552e-06
1.01897e-07
-1.55375e-06
-1.76505e-07
-1.61985e-06
-5.00518e-07
-1.65156e-06
-8.4691e-07
-1.6504e-06
-1.19735e-06
-1.62484e-06
-1.52952e-06
-1.57122e-06
-1.80389e-06
-1.46894e-06
-1.97344e-06
-1.1632e-06
-1.96079e-06
-4.11647e-07
-1.40057e-06
2.21105e-07
1.46199e-08
3.72787e-07
3.71724e-09
6.19946e-07
-2.06928e-08
6.80045e-07
-5.25266e-08
7.29548e-07
-1.03076e-07
7.80347e-07
-1.67881e-07
8.36921e-07
-2.49517e-07
8.87495e-07
-3.49228e-07
9.24199e-07
-4.66361e-07
9.39204e-07
-6.00487e-07
9.25023e-07
-7.47605e-07
8.76222e-07
-9.06808e-07
7.87373e-07
-1.06978e-06
6.59138e-07
-1.23031e-06
4.81074e-07
-1.3693e-06
2.40397e-07
-1.47425e-06
-7.2598e-08
-1.53878e-06
-4.34275e-07
-1.5687e-06
-8.14488e-07
-1.57324e-06
-1.19121e-06
-1.56591e-06
-1.53279e-06
-1.55826e-06
-1.81134e-06
-1.54915e-06
-1.97968e-06
-1.51403e-06
-1.99847e-06
-1.21513e-06
-1.70339e-06
-9.962e-07
4.42364e-08
3.20643e-07
6.14875e-08
5.93247e-07
6.54676e-08
6.67992e-07
5.70397e-08
7.21133e-07
4.14966e-08
7.88414e-07
8.61637e-09
8.5504e-07
-3.89966e-08
9.22113e-07
-1.03702e-07
9.77704e-07
-1.86704e-07
1.01399e-06
-2.90473e-07
1.02266e-06
-4.19438e-07
9.97963e-07
-5.76662e-07
9.40461e-07
-7.64632e-07
8.42675e-07
-9.73399e-07
6.86296e-07
-1.18107e-06
4.45814e-07
-1.36624e-06
1.12071e-07
-1.51833e-06
-2.82608e-07
-1.64985e-06
-6.82282e-07
-1.76085e-06
-1.07902e-06
-1.86297e-06
-1.42987e-06
-1.96672e-06
-1.70641e-06
-2.0712e-06
-1.87612e-06
-2.15759e-06
-1.91374e-06
-2.12973e-06
-1.73322e-06
-1.15186e-06
-1.97819e-06
5.90563e-08
2.34852e-07
1.00934e-07
5.39299e-07
1.18052e-07
6.38873e-07
1.30595e-07
7.07571e-07
1.24751e-07
7.75507e-07
1.12172e-07
8.57844e-07
8.48022e-08
9.36959e-07
4.42568e-08
1.00825e-06
-1.28477e-08
1.06251e-06
-8.92487e-08
1.09231e-06
-1.89051e-07
1.09457e-06
-3.1982e-07
1.06613e-06
-4.78706e-07
9.97612e-07
-6.55357e-07
8.59931e-07
-8.38594e-07
6.26513e-07
-1.01299e-06
2.83347e-07
-1.14362e-06
-1.52221e-07
-1.2775e-06
-5.48482e-07
-1.38633e-06
-9.69905e-07
-1.47673e-06
-1.3391e-06
-1.55366e-06
-1.63007e-06
-1.60321e-06
-1.82744e-06
-1.61525e-06
-1.90329e-06
-1.53623e-06
-1.81677e-06
-1.47163e-06
-1.21841e-06
7.09824e-08
1.56103e-07
1.4353e-07
4.5771e-07
1.81595e-07
5.97353e-07
1.98879e-07
6.72025e-07
2.15274e-07
7.5751e-07
2.16803e-07
8.43571e-07
2.10386e-07
9.32103e-07
1.94718e-07
1.01427e-06
1.68342e-07
1.08128e-06
1.28191e-07
1.12768e-06
6.50195e-08
1.15154e-06
-2.43213e-08
1.15196e-06
-1.35828e-07
1.1055e-06
-2.58931e-07
9.79234e-07
-3.89224e-07
7.52672e-07
-5.35415e-07
4.28565e-07
-6.0409e-07
-8.75157e-08
-7.47832e-07
-4.05592e-07
-8.7111e-07
-8.47031e-07
-9.70506e-07
-1.24047e-06
-1.04174e-06
-1.55964e-06
-1.06951e-06
-1.80126e-06
-1.04305e-06
-1.93332e-06
-9.40491e-07
-1.92069e-06
-1.75661e-06
-6.58869e-07
6.40529e-08
6.2125e-08
1.89034e-07
3.22399e-07
2.42754e-07
5.32069e-07
2.79605e-07
6.368e-07
3.01247e-07
7.19682e-07
3.20366e-07
8.14731e-07
3.34394e-07
9.09449e-07
3.42567e-07
9.9729e-07
3.45313e-07
1.07189e-06
3.38474e-07
1.12869e-06
3.19111e-07
1.16785e-06
2.82568e-07
1.18519e-06
2.34864e-07
1.14893e-06
1.84884e-07
1.02504e-06
1.50936e-07
7.83944e-07
9.82174e-08
4.74462e-07
6.39265e-08
-5.77462e-08
-8.41557e-08
-2.59702e-07
-2.2937e-07
-7.03454e-07
-3.57188e-07
-1.1142e-06
-4.57022e-07
-1.46172e-06
-5.0517e-07
-1.75555e-06
-4.81506e-07
-1.95853e-06
-3.6552e-07
-2.04102e-06
-1.98762e-06
-1.3601e-07
4.46523e-08
8.59245e-09
2.29919e-07
1.30861e-07
3.15217e-07
4.43745e-07
3.5263e-07
5.82958e-07
3.8913e-07
6.82718e-07
4.19809e-07
7.74031e-07
4.51141e-07
8.69186e-07
4.82586e-07
9.57886e-07
5.13588e-07
1.03516e-06
5.41309e-07
1.0971e-06
5.62241e-07
1.14401e-06
5.7292e-07
1.16963e-06
5.76374e-07
1.1428e-06
5.64783e-07
1.03356e-06
5.50001e-07
7.94609e-07
5.49357e-07
4.71976e-07
5.08059e-07
-2.21678e-08
4.98443e-07
-2.53581e-07
4.10633e-07
-6.18121e-07
2.87595e-07
-9.93466e-07
1.68259e-07
-1.34458e-06
9.30945e-08
-1.68232e-06
9.32541e-08
-1.96249e-06
1.85749e-07
-2.13472e-06
-2.16241e-06
3.58081e-07
7.05538e-08
-7.56396e-08
2.56104e-07
-6.45564e-08
3.73571e-07
3.15544e-07
4.32737e-07
5.29607e-07
4.67727e-07
6.31672e-07
5.10835e-07
7.26208e-07
5.56198e-07
8.15501e-07
6.08103e-07
8.99942e-07
6.64153e-07
9.73814e-07
7.23093e-07
1.03471e-06
7.80364e-07
1.0813e-06
8.39106e-07
1.11063e-06
8.87571e-07
1.09044e-06
9.20111e-07
9.98016e-07
9.28277e-07
7.84114e-07
9.18411e-07
4.78223e-07
8.45073e-07
4.77295e-08
8.72929e-07
-2.83729e-07
8.62549e-07
-6.09518e-07
7.96572e-07
-9.2918e-07
7.13092e-07
-1.26273e-06
6.50871e-07
-1.62225e-06
6.46879e-07
-1.95947e-06
7.15581e-07
-2.20638e-06
-2.28626e-06
8.38494e-07
1.20756e-07
-1.98821e-07
2.59256e-07
-2.08329e-07
4.21984e-07
1.55088e-07
4.9107e-07
4.4334e-07
5.41843e-07
5.84187e-07
5.88306e-07
6.71045e-07
6.45332e-07
7.51161e-07
7.13106e-07
8.26299e-07
7.90469e-07
8.91836e-07
8.74777e-07
9.46136e-07
9.66835e-07
9.90305e-07
1.05874e-06
1.01199e-06
1.14796e-06
1.00002e-06
1.22628e-06
9.18211e-07
1.27617e-06
7.3252e-07
1.29909e-06
4.53763e-07
1.26825e-06
7.69433e-08
1.27564e-06
-2.92472e-07
1.27934e-06
-6.14506e-07
1.25225e-06
-9.0333e-07
1.2031e-06
-1.21491e-06
1.16281e-06
-1.5829e-06
1.1605e-06
-1.95951e-06
1.21212e-06
-2.25841e-06
-2.37023e-06
1.29415e-06
1.18547e-07
-3.2014e-07
2.46076e-07
-3.37321e-07
4.31589e-07
-4.15381e-08
5.40387e-07
3.40201e-07
5.94496e-07
5.17763e-07
6.48168e-07
6.11108e-07
7.13676e-07
6.80802e-07
7.92808e-07
7.41331e-07
8.8681e-07
7.94361e-07
9.93864e-07
8.38233e-07
1.10614e-06
8.70334e-07
1.22972e-06
8.91437e-07
1.352e-06
8.75245e-07
1.4668e-06
8.02317e-07
1.55724e-06
6.41512e-07
1.62183e-06
3.88559e-07
1.64615e-06
5.1902e-08
1.65903e-06
-3.05947e-07
1.66352e-06
-6.1964e-07
1.6537e-06
-8.94331e-07
1.63209e-06
-1.19404e-06
1.61688e-06
-1.56905e-06
1.6263e-06
-1.96906e-06
1.66541e-06
-2.30013e-06
-2.42011e-06
1.71472e-06
8.95359e-08
-4.01991e-07
2.20902e-07
-4.7078e-07
4.1194e-07
-2.30184e-07
5.47461e-07
1.91231e-07
6.25318e-07
4.40982e-07
6.85537e-07
5.44379e-07
7.55777e-07
6.04602e-07
8.43223e-07
6.49155e-07
9.48966e-07
6.85507e-07
1.06879e-06
7.13479e-07
1.20603e-06
7.37973e-07
1.34663e-06
7.43588e-07
1.49497e-06
7.27105e-07
1.63775e-06
6.59419e-07
1.76139e-06
5.17749e-07
1.85861e-06
2.91307e-07
1.91978e-06
-9.11421e-09
1.95299e-06
-3.39223e-07
1.97045e-06
-6.37421e-07
1.979e-06
-9.03308e-07
1.98683e-06
-1.20259e-06
2.00375e-06
-1.58618e-06
2.02906e-06
-1.99658e-06
2.05993e-06
-2.33054e-06
-2.44281e-06
2.0804e-06
7.27287e-08
-4.74854e-07
1.85852e-07
-5.8222e-07
3.44337e-07
-3.98602e-07
5.19622e-07
2.21755e-08
6.18813e-07
3.29082e-07
6.93181e-07
4.67189e-07
7.67881e-07
5.23896e-07
8.60058e-07
5.53076e-07
9.71768e-07
5.70341e-07
1.10549e-06
5.80938e-07
1.25049e-06
5.83497e-07
1.41384e-06
5.85341e-07
1.57925e-06
5.59799e-07
1.7418e-06
4.96346e-07
1.88857e-06
3.71099e-07
2.00759e-06
1.72719e-07
2.09326e-06
-9.43951e-08
2.15133e-06
-3.97086e-07
2.19192e-06
-6.78008e-07
2.22711e-06
-9.38769e-07
2.26994e-06
-1.24562e-06
2.319e-06
-1.63628e-06
2.36025e-06
-2.03705e-06
2.37287e-06
-2.34633e-06
-2.43731e-06
2.36731e-06
7.68952e-08
-5.43195e-07
1.36143e-07
-6.4081e-07
2.56766e-07
-5.13981e-07
4.34369e-07
-1.72243e-07
5.74444e-07
1.91392e-07
6.63247e-07
3.71132e-07
7.45608e-07
4.3609e-07
8.40066e-07
4.54647e-07
9.55067e-07
4.52346e-07
1.08981e-06
4.40231e-07
1.25161e-06
4.28765e-07
1.42235e-06
4.06411e-07
1.60392e-06
3.78942e-07
1.78114e-06
3.19414e-07
1.94314e-06
2.0963e-07
2.07858e-06
3.81765e-08
2.18831e-06
-2.03125e-07
2.27317e-06
-4.81261e-07
2.34056e-06
-7.45042e-07
2.40546e-06
-1.00352e-06
2.48113e-06
-1.32143e-06
2.55466e-06
-1.70949e-06
2.59567e-06
-2.08063e-06
2.58118e-06
-2.33033e-06
-2.40488e-06
2.54608e-06
7.84752e-08
-6.18564e-07
1.06705e-07
-6.65776e-07
1.53609e-07
-5.67355e-07
3.09921e-07
-3.22468e-07
4.74056e-07
1.54757e-08
5.90029e-07
2.48898e-07
6.82929e-07
3.39089e-07
7.78143e-07
3.5412e-07
8.9136e-07
3.35405e-07
1.03094e-06
3.01964e-07
1.18831e-06
2.59457e-07
1.37288e-06
2.28032e-07
1.56282e-06
1.86964e-07
1.75176e-06
1.30388e-07
1.92573e-06
3.65844e-08
2.08036e-06
-1.15055e-07
2.21662e-06
-3.38089e-07
2.32687e-06
-5.905e-07
2.41689e-06
-8.34402e-07
2.50491e-06
-1.09116e-06
2.59797e-06
-1.41429e-06
2.66985e-06
-1.7823e-06
2.69396e-06
-2.10297e-06
2.65875e-06
-2.29918e-06
-2.35261e-06
2.60706e-06
9.2796e-08
-7.03855e-07
1.22769e-07
-6.90832e-07
1.12168e-07
-5.53068e-07
1.7241e-07
-3.99004e-07
3.3417e-07
-1.45884e-07
4.70978e-07
1.05913e-07
5.73272e-07
2.30767e-07
6.68519e-07
2.53427e-07
7.76526e-07
2.23408e-07
9.03273e-07
1.67071e-07
1.06655e-06
1.04633e-07
1.24586e-06
3.93195e-08
1.4426e-06
-8.35824e-09
1.6392e-06
-6.50698e-08
1.82669e-06
-1.49296e-07
2.00537e-06
-2.91967e-07
2.16297e-06
-4.94066e-07
2.28923e-06
-7.15494e-07
2.39495e-06
-9.39212e-07
2.50398e-06
-1.1996e-06
2.6096e-06
-1.51974e-06
2.67911e-06
-1.85096e-06
2.68678e-06
-2.11391e-06
2.64392e-06
-2.25357e-06
-2.29044e-06
2.57871e-06
1.03347e-07
-8.00955e-07
1.38476e-07
-7.22314e-07
9.91688e-08
-5.16801e-07
8.29394e-08
-3.71539e-07
1.60424e-07
-2.42334e-07
3.01283e-07
-3.70628e-08
4.10069e-07
1.15777e-07
5.02223e-07
1.57458e-07
5.96376e-07
1.25049e-07
7.07647e-07
5.89261e-08
8.47247e-07
-4.79558e-08
1.02903e-06
-1.33932e-07
1.22401e-06
-2.03758e-07
1.42599e-06
-2.65533e-07
1.63001e-06
-3.51237e-07
1.82575e-06
-4.85605e-07
1.99055e-06
-6.57041e-07
2.12359e-06
-8.47042e-07
2.25206e-06
-1.0666e-06
2.39379e-06
-1.34066e-06
2.52193e-06
-1.64745e-06
2.59118e-06
-1.92125e-06
2.59103e-06
-2.11098e-06
2.54522e-06
-2.21259e-06
-2.24675e-06
2.50284e-06
9.74261e-08
-8.91766e-07
1.26153e-07
-7.46508e-07
8.67799e-08
-4.69427e-07
6.7819e-09
-3.08568e-07
1.49893e-08
-2.33328e-07
8.04026e-08
-1.08618e-07
1.73483e-07
1.84051e-08
2.55799e-07
7.16692e-08
3.37143e-07
4.23846e-08
3.95024e-07
-6.26086e-09
5.34723e-07
-1.7514e-07
7.12429e-07
-3.19111e-07
9.15359e-07
-4.02998e-07
1.12621e-06
-4.73391e-07
1.33592e-06
-5.58196e-07
1.52703e-06
-6.74252e-07
1.69569e-06
-8.23581e-07
1.86245e-06
-1.01212e-06
2.0481e-06
-1.25104e-06
2.23318e-06
-1.52498e-06
2.37155e-06
-1.78544e-06
2.44042e-06
-1.9889e-06
2.45055e-06
-2.12491e-06
2.44348e-06
-2.20164e-06
-2.24904e-06
2.44276e-06
7.82145e-08
-9.65136e-07
6.48786e-08
-7.28247e-07
-2.12479e-08
-3.84031e-07
-7.66018e-08
-2.27557e-07
-1.55412e-07
-1.67357e-07
-2.1422e-07
-5.30323e-08
-1.8546e-07
-1.07515e-08
-1.26707e-07
1.12631e-08
-4.6371e-08
-3.94876e-08
-2.33244e-08
-1.82409e-08
1.5242e-07
-3.62372e-07
3.68169e-07
-5.22561e-07
5.80269e-07
-6.1242e-07
7.88244e-07
-6.77829e-07
9.94006e-07
-7.60591e-07
1.20477e-06
-8.82056e-07
1.43434e-06
-1.05071e-06
1.68738e-06
-1.2633e-06
1.93787e-06
-1.50026e-06
2.14165e-06
-1.72789e-06
2.27362e-06
-1.91691e-06
2.34124e-06
-2.05761e-06
2.37526e-06
-2.15529e-06
2.39581e-06
-2.22723e-06
-2.27509e-06
2.42392e-06
2.22445e-08
-9.81299e-07
-7.71849e-08
-6.23599e-07
-2.27503e-07
-2.20468e-07
-3.87916e-07
-8.03997e-08
-5.32367e-07
-4.96656e-09
-5.63334e-07
-2.08107e-08
-5.25507e-07
-4.46225e-08
-4.43753e-07
-6.52772e-08
-3.39205e-07
-1.31287e-07
-2.42551e-07
-1.13979e-07
-1.11862e-08
-5.70279e-07
1.95993e-07
-7.32197e-07
4.00556e-07
-8.10052e-07
6.13208e-07
-8.85621e-07
8.55161e-07
-9.98771e-07
1.13456e-06
-1.15845e-06
1.4374e-06
-1.35124e-06
1.72784e-06
-1.55203e-06
1.96631e-06
-1.73753e-06
2.13317e-06
-1.89398e-06
2.23549e-06
-2.01885e-06
2.2963e-06
-2.11687e-06
2.33343e-06
-2.19631e-06
2.36719e-06
-2.25631e-06
-2.30722e-06
2.39677e-06
-9.52253e-08
-8.86027e-07
-3.22522e-07
-3.94402e-07
-5.73645e-07
2.81531e-08
-7.66881e-07
1.3424e-07
-8.95124e-07
1.17364e-07
-9.61e-07
5.58083e-08
-9.6722e-07
-2.93549e-08
-8.59788e-07
-1.59926e-07
-6.23507e-07
-3.55612e-07
-2.09973e-07
-5.05739e-07
1.96221e-08
-8.01229e-07
2.36201e-07
-9.33052e-07
4.59283e-07
-1.02828e-06
7.11682e-07
-1.13382e-06
9.99302e-07
-1.28318e-06
1.30309e-06
-1.45976e-06
1.58698e-06
-1.63321e-06
1.82018e-06
-1.78376e-06
1.99081e-06
-1.90708e-06
2.10561e-06
-2.00802e-06
2.18077e-06
-2.09342e-06
2.23117e-06
-2.16829e-06
2.27183e-06
-2.23285e-06
2.30346e-06
-2.29256e-06
-2.34001e-06
2.33883e-06
-2.18825e-07
-6.62225e-07
-4.88551e-07
-1.20989e-07
-6.57654e-07
2.10964e-07
-7.81314e-07
2.50978e-07
-8.68498e-07
2.21594e-07
-9.12133e-07
1.08458e-07
-8.58862e-07
-6.89609e-08
-7.04834e-07
-2.99098e-07
-4.82232e-07
-5.62359e-07
-1.69063e-07
-8.09029e-07
9.53016e-08
-1.04588e-06
3.41853e-07
-1.17713e-06
6.03756e-07
-1.28369e-06
8.8709e-07
-1.41303e-06
1.17523e-06
-1.56844e-06
1.43902e-06
-1.72138e-06
1.65624e-06
-1.84872e-06
1.82102e-06
-1.94719e-06
1.94026e-06
-2.0253e-06
2.0259e-06
-2.09293e-06
2.08937e-06
-2.15639e-06
2.14056e-06
-2.21779e-06
2.18261e-06
-2.27846e-06
2.2273e-06
-2.33224e-06
-2.38628e-06
2.27156e-06
-3.13966e-07
-3.50207e-07
-5.2949e-07
9.9598e-08
-6.44593e-07
3.25849e-07
-7.63546e-07
3.86589e-07
-8.65239e-07
3.27639e-07
-8.85432e-07
1.41667e-07
-7.91922e-07
-1.454e-07
-6.12258e-07
-4.61264e-07
-3.835e-07
-7.7515e-07
-9.94247e-08
-1.07537e-06
1.68129e-07
-1.30884e-06
4.47456e-07
-1.44491e-06
7.30905e-07
-1.56214e-06
1.01186e-06
-1.69041e-06
1.26672e-06
-1.82077e-06
1.47769e-06
-1.93039e-06
1.64142e-06
-2.01089e-06
1.76497e-06
-2.06946e-06
1.8589e-06
-2.11824e-06
1.93323e-06
-2.16645e-06
1.99572e-06
-2.21826e-06
2.05093e-06
-2.27385e-06
2.10619e-06
-2.32949e-06
2.15775e-06
-2.38794e-06
-2.43997e-06
2.21428e-06
-3.5115e-07
1.28901e-08
-5.38675e-07
2.94212e-07
-6.84751e-07
4.83181e-07
-8.22915e-07
5.27878e-07
-8.92726e-07
4.09773e-07
-8.23704e-07
8.71407e-08
-6.7049e-07
-2.80288e-07
-5.00691e-07
-6.13275e-07
-2.94804e-07
-9.64787e-07
-2.12672e-08
-1.33802e-06
2.67912e-07
-1.58377e-06
5.57801e-07
-1.7304e-06
8.39822e-07
-1.83925e-06
1.09452e-06
-1.94194e-06
1.30721e-06
-2.03124e-06
1.47389e-06
-2.09537e-06
1.60085e-06
-2.13643e-06
1.69916e-06
-2.16659e-06
1.77969e-06
-2.19779e-06
1.85034e-06
-2.23635e-06
1.91564e-06
-2.28306e-06
1.97887e-06
-2.3353e-06
2.03767e-06
-2.39156e-06
2.09906e-06
-2.44424e-06
-2.49932e-06
2.1568e-06
-3.07174e-07
3.27817e-07
-5.27156e-07
5.22795e-07
-7.1209e-07
6.73036e-07
-8.16367e-07
6.41873e-07
-7.94133e-07
3.9874e-07
-6.54838e-07
-3.51612e-08
-5.09697e-07
-4.06456e-07
-3.69696e-07
-7.35901e-07
-1.66784e-07
-1.15329e-06
1.05169e-07
-1.59716e-06
3.89943e-07
-1.86355e-06
6.70551e-07
-2.00399e-06
9.27482e-07
-2.09239e-06
1.14539e-06
-2.15722e-06
1.31676e-06
-2.20072e-06
1.44635e-06
-2.22344e-06
1.54635e-06
-2.23514e-06
1.6295e-06
-2.24862e-06
1.70471e-06
-2.27205e-06
1.77627e-06
-2.30713e-06
1.84537e-06
-2.35145e-06
1.91081e-06
-2.40146e-06
1.97581e-06
-2.45232e-06
2.03468e-06
-2.50682e-06
-2.55697e-06
2.0953e-06
-2.21546e-07
5.62531e-07
-4.63209e-07
7.71582e-07
-6.33572e-07
8.5111e-07
-6.75962e-07
6.94202e-07
-5.68039e-07
3.02202e-07
-4.25456e-07
-1.55658e-07
-3.00582e-07
-5.11988e-07
-1.75381e-07
-8.44472e-07
8.9081e-09
-1.32497e-06
2.54947e-07
-1.83582e-06
5.21138e-07
-2.12205e-06
7.73464e-07
-2.25287e-06
9.93152e-07
-2.309e-06
1.16831e-06
-2.33023e-06
1.3003e-06
-2.33109e-06
1.40095e-06
-2.32275e-06
1.48466e-06
-2.31767e-06
1.56176e-06
-2.32468e-06
1.63682e-06
-2.34619e-06
1.71022e-06
-2.3798e-06
1.78079e-06
-2.42144e-06
1.84851e-06
-2.46742e-06
1.91025e-06
-2.51699e-06
1.9729e-06
-2.56447e-06
-2.61662e-06
2.0312e-06
-1.59646e-07
7.30425e-07
-3.30617e-07
9.50185e-07
-4.23377e-07
9.51886e-07
-3.91693e-07
6.67784e-07
-2.42392e-07
1.77833e-07
-1.1689e-07
-2.56925e-07
-4.96322e-09
-6.05533e-07
8.12498e-08
-9.16905e-07
2.16164e-07
-1.45095e-06
4.25958e-07
-2.03898e-06
6.56525e-07
-2.34962e-06
8.67237e-07
-2.46008e-06
1.03948e-06
-2.47896e-06
1.17081e-06
-2.45985e-06
1.27042e-06
-2.42935e-06
1.3527e-06
-2.40385e-06
1.42921e-06
-2.39309e-06
1.50515e-06
-2.39964e-06
1.58073e-06
-2.4209e-06
1.65417e-06
-2.45245e-06
1.7239e-06
-2.49051e-06
1.78862e-06
-2.53273e-06
1.85204e-06
-2.57631e-06
1.90947e-06
-2.62529e-06
-2.67269e-06
1.9685e-06
-7.63543e-08
8.14136e-07
-1.46242e-07
1.02553e-06
-1.40048e-07
9.49789e-07
-5.03409e-08
5.97656e-07
1.05818e-07
4.26613e-08
1.91969e-07
-3.20421e-07
2.77619e-07
-6.77999e-07
3.26075e-07
-9.56457e-07
4.24479e-07
-1.54365e-06
6.02306e-07
-2.21368e-06
7.89348e-07
-2.53332e-06
9.4772e-07
-2.61667e-06
1.07053e-06
-2.60015e-06
1.16404e-06
-2.55207e-06
1.24137e-06
-2.50555e-06
1.31418e-06
-2.47563e-06
1.38803e-06
-2.46595e-06
1.46293e-06
-2.47362e-06
1.53654e-06
-2.49368e-06
1.6067e-06
-2.52192e-06
1.67242e-06
-2.55567e-06
1.73483e-06
-2.59339e-06
1.79178e-06
-2.63597e-06
1.85004e-06
-2.67868e-06
-2.72801e-06
1.90426e-06
4.67649e-08
7.69978e-07
7.97361e-08
9.96484e-07
1.58803e-07
8.78722e-07
2.46171e-07
5.16043e-07
3.40403e-07
-3.29531e-08
4.10954e-07
-3.83423e-07
4.80397e-07
-7.42116e-07
5.29254e-07
-1.00088e-06
6.21321e-07
-1.63295e-06
7.73589e-07
-2.36352e-06
9.09131e-07
-2.66786e-06
1.0137e-06
-2.71979e-06
1.09303e-06
-2.67846e-06
1.15935e-06
-2.61744e-06
1.22372e-06
-2.569e-06
1.29135e-06
-2.54236e-06
1.36183e-06
-2.53554e-06
1.43229e-06
-2.54322e-06
1.50013e-06
-2.56074e-06
1.56411e-06
-2.58519e-06
1.62427e-06
-2.61515e-06
1.68041e-06
-2.65004e-06
1.73638e-06
-2.68798e-06
1.78757e-06
-2.73283e-06
-2.77805e-06
1.84051e-06
1.87079e-07
5.864e-07
3.21813e-07
8.63498e-07
4.29571e-07
7.71777e-07
5.15616e-07
4.34049e-07
5.46541e-07
-6.18363e-08
6.25013e-07
-4.61834e-07
6.82237e-07
-7.98446e-07
7.14588e-07
-1.03177e-06
8.05538e-07
-1.72257e-06
9.27767e-07
-2.48512e-06
1.01111e-06
-2.74999e-06
1.06832e-06
-2.77666e-06
1.11615e-06
-2.72557e-06
1.1655e-06
-2.66609e-06
1.22124e-06
-2.62401e-06
1.28243e-06
-2.60276e-06
1.3456e-06
-2.59791e-06
1.40769e-06
-2.60452e-06
1.46711e-06
-2.6194e-06
1.52349e-06
-2.64093e-06
1.57715e-06
-2.66822e-06
1.62943e-06
-2.70062e-06
1.67813e-06
-2.73898e-06
1.72882e-06
-2.77895e-06
-2.8261e-06
1.77614e-06
3.13552e-07
2.68822e-07
5.36953e-07
6.39905e-07
6.88846e-07
6.20263e-07
7.7909e-07
3.43598e-07
8.06233e-07
-9.57891e-08
8.61559e-07
-5.18927e-07
8.74337e-07
-8.11798e-07
8.80514e-07
-1.0382e-06
9.70328e-07
-1.81227e-06
1.05855e-06
-2.57275e-06
1.09589e-06
-2.78764e-06
1.11918e-06
-2.79921e-06
1.14628e-06
-2.75242e-06
1.1833e-06
-2.70264e-06
1.22924e-06
-2.66932e-06
1.2802e-06
-2.65303e-06
1.33261e-06