/*--------------------------------*- C++ -*----------------------------------*\
  =========                 |
  \\      /  F ield         | OpenFOAM: The Open Source CFD Toolbox
   \\    /   O peration     | Website:  https://openfoam.org
    \\  /    A nd           | Version:  13
     \\/     M anipulation  |
\*---------------------------------------------------------------------------*/
FoamFile
{
    format      ascii;
    class       volVectorField;
    location    "7";
    object      U;
}
// * * * * * * * * * * * * * * * * * * * * * * * * * * * * * * * * * * * * * //

dimensions      [0 1 -1 0 0 0 0];

internalField   nonuniform List<vector> 
6440
(
(0.000673991 -0.0103625 0)
(0.0117152 -0.025295 0)
(0.0271478 -0.02945 -1.39455e-15)
(0.0426692 -0.0276684 1.25476e-15)
(0.0555428 -0.024587 0)
(0.0663941 -0.0230214 -2.15908e-15)
(0.0765478 -0.0229452 2.0139e-15)
(0.0872696 -0.0243005 0)
(0.0997247 -0.026127 0)
(0.11433 -0.028771 0)
(0.131586 -0.0315768 2.9595e-15)
(0.151456 -0.0349682 -5.41711e-15)
(0.174161 -0.0385389 2.471e-15)
(0.199332 -0.0423513 0)
(0.225997 -0.0455272 -4.17778e-15)
(0.25269 -0.0478128 3.91316e-15)
(0.276376 -0.0469085 0)
(0.29348 -0.0408598 0)
(0.302201 -0.0301865 0)
(0.299219 -0.0187137 0)
(0.282435 -0.00335529 -3.9094e-15)
(0.24906 0.0151927 8.57381e-15)
(0.196975 0.0294742 -5.00553e-15)
(0.127999 0.0365187 -6.38254e-15)
(0.0477272 0.0398398 7.97273e-15)
(0.00150757 -0.037729 0)
(0.014621 -0.0776932 0)
(0.0286126 -0.0834845 -1.19981e-15)
(0.0416528 -0.0750231 1.12621e-15)
(0.0527346 -0.0661999 0)
(0.0621018 -0.0610295 -2.05177e-15)
(0.0709808 -0.0592128 3.89878e-15)
(0.080203 -0.0608419 -1.82512e-15)
(0.0911096 -0.0643096 0)
(0.104451 -0.0692262 0)
(0.120608 -0.0743141 0)
(0.1395 -0.0802386 -2.57228e-15)
(0.161425 -0.0858587 2.33479e-15)
(0.186128 -0.0904851 2.12062e-15)
(0.216657 -0.0919886 -1.93629e-15)
(0.251101 -0.0887886 0)
(0.28698 -0.0781173 0)
(0.32096 -0.0594481 0)
(0.348759 -0.0319681 0)
(0.365835 0.00208616 0)
(0.358749 0.0407558 -3.21812e-15)
(0.336725 0.0801757 3.32884e-15)
(0.289423 0.115724 0)
(0.21125 0.140317 -4.33104e-15)
(0.0888452 0.13625 1.09588e-14)
(0.00391706 -0.0685348 0)
(0.0076765 -0.119149 0)
(0.00861679 -0.116766 0)
(0.00781913 -0.104757 0)
(0.00550435 -0.0946161 0)
(0.00384946 -0.0904044 0)
(0.00401674 -0.0920548 2.45015e-15)
(0.00679806 -0.0977302 -2.28573e-15)
(0.0132405 -0.106241 0)
(0.0235049 -0.116161 0)
(0.0373806 -0.127267 0)
(0.0548624 -0.139091 0)
(0.0770695 -0.149543 0)
(0.104151 -0.157903 2.32502e-15)
(0.136592 -0.162138 -6.17811e-15)
(0.175571 -0.158147 3.71007e-15)
(0.220153 -0.142408 0)
(0.267191 -0.111594 0)
(0.312111 -0.0638259 0)
(0.344174 -0.00199467 0)
(0.356643 0.0669205 0)
(0.343108 0.136637 0)
(0.305457 0.201592 3.15553e-15)
(0.239599 0.249779 -3.47964e-15)
(0.11242 0.247052 4.11433e-15)
(0.0022687 -0.0926507 0)
(-0.0107995 -0.135884 0)
(-0.0288083 -0.122227 -1.31884e-15)
(-0.0469196 -0.104869 1.28993e-15)
(-0.0623857 -0.0967781 0)
(-0.073672 -0.0981944 -2.20154e-15)
(-0.0796859 -0.106643 2.039e-15)
(-0.0805645 -0.11952 0)
(-0.0759737 -0.135259 3.74123e-15)
(-0.066042 -0.152945 -3.77379e-15)
(-0.0508045 -0.172394 3.95121e-15)
(-0.0325931 -0.192189 -7.67314e-15)
(-0.0128159 -0.212174 3.195e-15)
(0.0134704 -0.229876 0)
(0.0470874 -0.241288 0)
(0.0896296 -0.240375 0)
(0.141227 -0.221944 3.49399e-15)
(0.199698 -0.179367 -9.49508e-19)
(0.260857 -0.107476 -3.49128e-15)
(0.31208 -0.0115421 0)
(0.3409 0.0928407 0)
(0.336956 0.194583 2.88526e-15)
(0.306945 0.285799 -2.85659e-15)
(0.250214 0.35528 -3.00014e-15)
(0.129552 0.35253 6.80571e-15)
(-0.00670884 -0.101743 0)
(-0.0376593 -0.124507 0)
(-0.0710863 -0.102169 -1.09635e-15)
(-0.0992892 -0.0882554 9.95981e-16)
(-0.121896 -0.0864077 0)
(-0.139674 -0.0937196 -1.58729e-15)
(-0.153273 -0.107621 1.42983e-15)
(-0.16277 -0.12664 0)
(-0.167356 -0.149823 2.44397e-15)
(-0.166668 -0.176804 -2.33123e-15)
(-0.160297 -0.207022 2.2705e-15)
(-0.14745 -0.239268 -4.51923e-15)
(-0.126673 -0.271477 2.32674e-15)
(-0.0955625 -0.299979 0)
(-0.057524 -0.321112 4.96503e-15)
(-0.0122928 -0.330466 -4.17024e-15)
(0.0457492 -0.317 3.58233e-15)
(0.11579 -0.267661 -1.18006e-18)
(0.194465 -0.172855 -3.5273e-15)
(0.270175 -0.0348976 0)
(0.316756 0.111878 3.07562e-15)
(0.327389 0.250857 -1.48331e-19)
(0.3011 0.3681 -2.64744e-15)
(0.254978 0.451187 -2.6821e-15)
(0.139896 0.435824 2.99799e-15)
(-0.018508 -0.094825 0)
(-0.061637 -0.0974885 0)
(-0.103966 -0.0731278 -1.01471e-15)
(-0.139545 -0.0627079 8.42553e-16)
(-0.170448 -0.065829 0)
(-0.19708 -0.0785964 -1.32755e-15)
(-0.219904 -0.0981989 1.16708e-15)
(-0.238343 -0.123624 0)
(-0.251721 -0.153897 1.89316e-15)
(-0.259376 -0.188467 -1.759e-15)
(-0.261348 -0.227146 1.66355e-15)
(-0.257638 -0.269532 -3.19469e-15)
(-0.246767 -0.313923 1.56364e-15)
(-0.226317 -0.357191 0)
(-0.193211 -0.394054 -3.28158e-15)
(-0.14294 -0.415522 3.68618e-15)
(-0.0766233 -0.409965 3.83216e-15)
(0.00452437 -0.363373 -1.56225e-18)
(0.104502 -0.252273 -3.59184e-15)
(0.215091 -0.0708538 0)
(0.283536 0.120205 -3.1269e-15)
(0.310758 0.300787 5.42787e-15)
(0.290584 0.443018 -2.49699e-15)
(0.254497 0.534846 -2.46691e-15)
(0.146013 0.497594 2.75043e-15)
(-0.0245256 -0.0692122 0)
(-0.0792568 -0.0564373 0)
(-0.128432 -0.0299091 -8.33159e-16)
(-0.172238 -0.0235037 6.68639e-16)
(-0.212663 -0.0327224 0)
(-0.24921 -0.0522878 -1.08933e-15)
(-0.281339 -0.0788561 1.00191e-15)
(-0.30881 -0.110906 0)
(-0.331026 -0.147665 1.59493e-15)
(-0.347636 -0.188994 -1.44961e-15)
(-0.358715 -0.235222 1.34223e-15)
(-0.364642 -0.286377 -2.52125e-15)
(-0.364435 -0.341265 1.19965e-15)
(-0.355759 -0.397092 0)
(-0.335231 -0.448925 0)
(-0.298116 -0.488253 0)
(-0.237972 -0.500074 2.63128e-15)
(-0.146167 -0.458281 -1.76888e-18)
(-0.021027 -0.329253 -3.82908e-15)
(0.146167 -0.102551 0)
(0.248483 0.121943 0)
(0.290802 0.342751 2.69404e-15)
(0.27771 0.505907 -2.39378e-15)
(0.252758 0.601889 -2.31219e-15)
(0.148803 0.541932 2.593e-15)
(-0.0257384 -0.0332504 0)
(-0.0901781 -0.000428804 0)
(-0.145504 0.0261088 -6.33448e-16)
(-0.197265 0.0282459 5.25883e-16)
(-0.247095 0.0136638 0)
(-0.293947 -0.0131159 -8.68324e-16)
(-0.336369 -0.0481322 8.38557e-16)
(-0.373285 -0.0878661 0)
(-0.405044 -0.130835 1.41502e-15)
(-0.431179 -0.178027 -1.26299e-15)
(-0.452068 -0.230531 1.14847e-15)
(-0.46854 -0.289267 -2.11913e-15)
(-0.480178 -0.353798 9.8853e-16)
(-0.484743 -0.42152 0)
(-0.478672 -0.487605 0)
(-0.456906 -0.543661 0)
(-0.412017 -0.574544 1.83356e-15)
(-0.332618 -0.552188 -1.3316e-18)
(-0.199321 -0.425496 -2.77908e-15)
(0.0266622 -0.131451 0)
(0.21238 0.143366 0)
(0.277643 0.376933 2.58522e-15)
(0.268611 0.554767 -2.28811e-15)
(0.251189 0.652479 -2.18931e-15)
(0.151226 0.572002 4.96356e-15)
(-0.0264984 0.0134027 0)
(-0.0957835 0.0647961 0)
(-0.15683 0.0896138 0)
(-0.215722 0.088728 0)
(-0.273695 0.0703258 7.71778e-16)
(-0.329773 0.0377646 -7.19766e-16)
(-0.382854 -0.00519524 6.93152e-16)
(-0.430886 -0.0532941 -6.87588e-16)
(-0.472452 -0.103227 1.31063e-15)
(-0.508889 -0.155387 -1.97467e-19)
(-0.540281 -0.213154 -2.10229e-19)
(-0.567931 -0.278581 -9.30375e-16)
(-0.592138 -0.351766 -8.5412e-16)
(-0.610934 -0.430693 1.58571e-15)
(-0.620643 -0.510841 -2.23945e-15)
(-0.615973 -0.584176 1.43521e-15)
(-0.588957 -0.63598 0)
(-0.52661 -0.638362 1.48863e-15)
(-0.406774 -0.538441 -1.74312e-15)
(-0.181577 -0.249682 2.79803e-15)
(0.164221 0.175385 -1.74749e-18)
(0.269262 0.407798 -2.60581e-19)
(0.269223 0.592755 -2.2033e-15)
(0.254411 0.690415 0)
(0.154078 0.593227 -2.39179e-15)
(-0.0263452 0.0681758 0)
(-0.0983383 0.135412 0)
(-0.163808 0.15825 0)
(-0.227955 0.155717 0)
(-0.292352 0.135108 -6.56134e-16)
(-0.356346 0.0987183 6.13137e-16)
(-0.419068 0.0499753 -5.90005e-16)
(-0.478698 -0.00578425 5.81975e-16)
(-0.532364 -0.0631125 0)
(-0.579436 -0.121277 -1.07417e-15)
(-0.62191 -0.184171 2.06499e-19)
(-0.661336 -0.255591 8.44221e-16)
(-0.698478 -0.336801 0)
(-0.731902 -0.426621 -6.99738e-16)
(-0.75794 -0.520943 1.94466e-15)
(-0.771229 -0.612376 -1.22165e-15)
(-0.763796 -0.687574 1.17856e-15)
(-0.722629 -0.720836 -1.18423e-15)
(-0.624258 -0.66183 0)
(-0.423631 -0.415792 -1.65682e-15)
(-0.0244526 0.12878 8.66981e-15)
(0.253132 0.447981 -6.10752e-15)
(0.277106 0.629801 2.09154e-15)
(0.259585 0.720583 0)
(0.160517 0.610501 -2.30299e-15)
(-0.0270746 0.127731 0)
(-0.0987212 0.208355 0)
(-0.166616 0.22983 0)
(-0.234122 0.226917 0)
(-0.302925 0.205819 5.7119e-16)
(-0.372971 0.167898 -5.34697e-16)
(-0.444074 0.116013 5.12716e-16)
(-0.514466 0.0550603 -5.02796e-16)
(-0.581036 -0.00969213 1.00404e-15)
(-0.641217 -0.0755037 -2.06525e-19)
(-0.695983 -0.144493 -8.93814e-16)
(-0.74786 -0.2219 0)
(-0.798415 -0.31114 -7.03719e-16)
(-0.846783 -0.412038 1.27227e-15)
(-0.889396 -0.521195 -1.74415e-15)
(-0.920838 -0.631967 1.07909e-15)
(-0.933317 -0.732761 0)
(-0.914709 -0.8014 9.96969e-16)
(-0.843616 -0.794049 -1.02803e-15)
(-0.678152 -0.625635 1.18598e-15)
(-0.331534 -0.16241 -9.06926e-19)
(0.19211 0.474272 -3.88975e-15)
(0.281916 0.666801 0)
(0.276453 0.75171 0)
(0.174174 0.633242 0)
(-0.0271023 0.191042 0)
(-0.0967248 0.281219 0)
(-0.165262 0.302146 3.11853e-16)
(-0.234096 0.300026 -2.77287e-16)
(-0.305402 0.28021 0)
(-0.379773 0.243191 4.74662e-16)
(-0.457554 0.190899 -9.0767e-16)
(-0.537573 0.127193 4.41849e-16)
(-0.617067 0.0565832 0)
(-0.692237 -0.0172899 0)
(-0.761455 -0.0943334 0)
(-0.827382 -0.178812 7.5158e-16)
(-0.892482 -0.276381 -6.62464e-16)
(-0.956602 -0.388802 -5.90959e-16)
(-1.0164 -0.513721 -5.33195e-16)
(-1.06621 -0.645219 9.77532e-16)
(-1.09818 -0.773197 9.11116e-16)
(-1.10092 -0.878876 -8.72542e-16)
(-1.05551 -0.924831 0)
(-0.923953 -0.83517 0)
(-0.625897 -0.466464 1.22475e-15)
(-0.0479971 0.324051 -3.304e-15)
(0.272661 0.697753 0)
(0.298397 0.793869 1.82468e-15)
(0.193256 0.668133 -4.14949e-15)
(-0.0254404 0.250321 0)
(-0.0920935 0.351999 0)
(-0.159444 0.373104 -2.77957e-16)
(-0.227885 0.372936 2.49538e-16)
(-0.299749 0.356239 4.58148e-16)
(-0.376423 0.322672 -8.57143e-16)
(-0.459231 0.27294 8.14949e-16)
(-0.547715 0.209316 -3.93752e-16)
(-0.639418 0.135068 0)
(-0.730694 0.0534719 7.6786e-16)
(-0.817546 -0.0328981 -7.74418e-16)
(-0.899906 -0.1261 -7.33238e-16)
(-0.981379 -0.23234 3.21747e-19)
(-1.06281 -0.356505 1.11755e-15)
(-1.14097 -0.49767 -1.49349e-15)
(-1.20989 -0.650749 9.00208e-16)
(-1.2614 -0.806732 0)
(-1.28459 -0.950087 0)
(-1.2628 -1.05008 0)
(-1.16353 -1.04304 7.83401e-16)
(-0.912522 -0.801239 -9.21081e-16)
(-0.377841 -0.13472 0)
(0.245554 0.709849 0)
(0.327326 0.831946 -1.7543e-15)
(0.219654 0.713463 1.98191e-19)
(-0.0222083 0.304136 0)
(-0.0847892 0.41872 0)
(-0.149208 0.440796 2.52499e-16)
(-0.215291 0.443745 -2.28462e-16)
(-0.285783 0.431997 -4.20434e-16)
(-0.36287 0.404478 7.84728e-16)
(-0.448712 0.360399 -7.42239e-16)
(-0.543966 0.300119 3.55474e-16)
(-0.647135 0.225129 0)
(-0.754452 0.138107 -6.79436e-16)
(-0.861253 0.0420636 6.78972e-16)
(-0.963756 -0.0611441 6.83206e-16)
(-1.06403 -0.176776 -6.20809e-16)
(-1.16441 -0.311898 -5.36453e-16)
(-1.26203 -0.468445 -4.7022e-16)
(-1.35079 -0.642214 8.3917e-16)
(-1.42224 -0.825138 7.60442e-16)
(-1.46584 -1.00422 -7.05536e-16)
(-1.46653 -1.15428 0)
(-1.39571 -1.2219 -6.72863e-16)
(-1.18509 -1.0909 1.47592e-15)
(-0.681188 -0.546472 -1.03528e-15)
(0.157969 0.539592 0)
(0.387932 0.844097 1.78699e-15)
(0.258834 0.772253 -1.79945e-15)
(-0.0178462 0.351052 1.71347e-16)
(-0.0748358 0.479784 1.31255e-16)
(-0.134309 0.503703 -2.33251e-16)
(-0.196225 0.510881 4.24663e-16)
(-0.263411 0.505878 -7.07338e-20)
(-0.338848 0.486831 -3.64161e-16)
(-0.42576 0.451537 3.41915e-16)
(-0.525896 0.398086 3.24439e-16)
(-0.638615 0.326012 -6.24081e-16)
(-0.760965 0.236794 6.07661e-16)
(-0.888045 0.133423 -6.01339e-16)
(-1.01404 0.019622 0)
(-1.13555 -0.105266 -5.95003e-16)
(-1.25549 -0.249854 1.04929e-15)
(-1.37264 -0.419402 -4.52157e-16)
(-1.48101 -0.611399 7.9172e-16)
(-1.57257 -0.818863 -7.07551e-16)
(-1.6373 -1.03056 0)
(-1.66219 -1.22632 0)
(-1.62251 -1.3626 5.88508e-16)
(-1.45894 -1.34072 -9.10078e-20)
(-1.01566 -0.951242 -7.58087e-16)
(-0.102484 0.0447017 0)
(0.455943 0.842287 0)
(0.332926 0.840878 -1.70192e-15)
(-0.0121644 0.388153 0)
(-0.0623212 0.5334 0)
(-0.114734 0.559976 0)
(-0.170504 0.572574 0)
(-0.232509 0.575792 0)
(-0.304457 0.56737 0)
(-0.3902 0.543605 0)
(-0.49248 0.500434 0)
(-0.611873 0.435746 5.70487e-16)
(-0.746422 0.348946 -5.50894e-16)
(-0.891396 0.2433 0)
(-1.04043 0.121553 0)
(-1.18585 -0.0125762 0)
(-1.32533 -0.165591 0)
(-1.46045 -0.345043 0)
(-1.5867 -0.552962 0)
(-1.69723 -0.782423 -6.67595e-16)
(-1.78345 -1.02407 1.19939e-15)
(-1.83453 -1.26058 -1.10371e-15)
(-1.83044 -1.45723 5.2488e-16)
(-1.7217 -1.53361 5.25602e-16)
(-1.37136 -1.29745 -5.92803e-16)
(-0.488891 -0.425755 -9.70077e-16)
(0.507507 0.825482 2.44764e-15)
(0.423801 0.880782 -1.58742e-15)
(-0.00467813 0.413121 0)
(-0.0462957 0.579046 0)
(-0.0897959 0.606605 2.08123e-16)
(-0.137838 0.625705 -1.90913e-16)
(-0.193021 0.638941 0)
(-0.259603 0.643187 3.2462e-16)
(-0.342211 0.63364 -6.02546e-16)
(-0.443433 0.605053 2.80489e-16)
(-0.565249 0.552517 5.29345e-16)
(-0.706664 0.474757 -5.05179e-16)
(-0.86448 0.371865 -4.90152e-16)
(-1.03186 0.247868 9.6521e-16)
(-1.20048 0.105062 -4.84768e-16)
(-1.3599 -0.0551255 -4.95499e-16)
(-1.51108 -0.245191 -4.44572e-16)
(-1.65254 -0.467413 7.4766e-16)
(-1.77988 -0.719213 0)
(-1.88663 -0.989906 5.67788e-16)
(-1.96411 -1.26397 -5.147e-16)
(-1.99857 -1.51357 0)
(-1.95252 -1.67635 4.65313e-16)
(-1.71716 -1.59763 -9.79331e-16)
(-1.00701 -0.937476 6.56888e-16)
(0.372317 0.54488 2.21935e-15)
(0.51369 0.826508 -3.18433e-15)
(0.00262335 0.418908 1.45557e-16)
(-0.0267953 0.604207 1.10606e-16)
(-0.059346 0.639907 -2.02243e-16)
(-0.0975509 0.66725 3.74468e-16)
(-0.144285 0.691769 -6.83066e-16)
(-0.204378 0.710579 3.14552e-16)
(-0.281103 0.717273 0)
(-0.377876 0.705191 5.33456e-16)
(-0.496823 0.667932 -4.97827e-16)
(-0.639552 0.602283 -4.71761e-16)
(-0.803409 0.507851 4.52994e-16)
(-0.982216 0.388023 0)
(-1.16611 0.245334 4.40678e-16)
(-1.34489 0.0784261 -4.51015e-16)
(-1.5114 -0.121803 9.04631e-16)
(-1.66639 -0.36263 -8.36835e-19)
(-1.80888 -0.639464 -1.27002e-15)
(-1.93278 -0.940112 5.51744e-16)
(-2.03348 -1.24861 -4.90391e-16)
(-2.10219 -1.5398 -3.26978e-19)
(-2.11711 -1.77 8.50709e-16)
(-2.01225 -1.83145 -4.27827e-16)
(-1.56157 -1.46715 0)
(-0.388483 -0.151785 0)
(0.645609 1.01186 0)
(0.0136243 0.40174 0)
(-0.00241816 0.611792 0)
(-0.0219029 0.657206 0)
(-0.0491564 0.693717 0)
(-0.0860212 0.731201 0)
(-0.137478 0.76551 0)
(-0.206697 0.790176 -2.80884e-16)
(-0.295698 0.797281 2.57398e-16)
(-0.408046 0.780615 4.76783e-16)
(-0.546074 0.73538 -4.47419e-16)
(-0.707214 0.660922 -4.26856e-16)
(-0.884242 0.555409 4.14335e-16)
(-1.07197 0.416949 0)
(-1.26432 0.239124 -4.19272e-16)
(-1.44878 0.0173372 4.44293e-16)
(-1.62198 -0.253345 0)
(-1.77652 -0.55941 0)
(-1.91295 -0.889336 5.46749e-16)
(-2.02766 -1.2252 -9.61408e-16)
(-2.11917 -1.54262 4.33405e-16)
(-2.16824 -1.80715 4.04645e-16)
(-2.17125 -1.95683 -7.84152e-16)
(-1.99309 -1.86552 4.16076e-16)
(-1.19523 -0.968973 0)
(0.663667 1.00118 -2.07404e-15)
(0.0251129 0.360588 0)
(0.025753 0.602184 0)
(0.0207162 0.658917 2.04191e-16)
(0.00614138 0.705513 -1.88894e-16)
(-0.0201912 0.756127 0)
(-0.0628061 0.806391 3.07341e-16)
(-0.122528 0.848547 -5.55143e-16)
(-0.201572 0.874585 2.5224e-16)
(-0.30338 0.877042 4.63069e-16)
(-0.429318 0.850015 -4.33147e-16)
(-0.576547 0.788281 0)
(-0.742167 0.688381 3.97796e-16)
(-0.927002 0.548299 -3.94456e-16)
(-1.12912 0.366115 -4.00961e-16)
(-1.33113 0.134158 -4.2372e-16)
(-1.51336 -0.153678 8.52316e-16)
(-1.6719 -0.486775 0)
(-1.80887 -0.842921 5.58594e-16)
(-1.9265 -1.19895 -4.83111e-16)
(-2.02714 -1.52863 0)
(-2.11178 -1.79739 0)
(-2.16939 -1.96276 0)
(-2.17494 -2.00123 0)
(-2.07784 -1.76433 4.30227e-16)
(-1.34714 -0.826299 -2.03175e-15)
(0.0399833 0.289078 0)
(0.0583551 0.573606 0)
(0.0687491 0.645422 0)
(0.0681717 0.702007 0)
(0.0563293 0.766173 0)
(0.0281096 0.83265 0)
(-0.0172625 0.894873 0)
(-0.0793198 0.9439 0)
(-0.16097 0.972229 0)
(-0.263667 0.972416 0)
(-0.386615 0.93868 0)
(-0.532557 0.868789 0)
(-0.711364 0.758235 0)
(-0.923225 0.589363 0)
(-1.13834 0.338595 0)
(-1.31988 0.00605213 0)
(-1.46881 -0.371484 0)
(-1.59438 -0.762679 0)
(-1.70349 -1.14837 0)
(-1.79664 -1.4957 0)
(-1.88144 -1.77472 0)
(-1.97118 -1.92987 0)
(-2.08634 -1.92632 0)
(-2.20294 -1.56586 0)
(-2.21487 -0.692417 0)
(0.0534997 0.188401 0)
(0.0926459 0.522409 0)
(0.119204 0.616042 0)
(0.134338 0.682213 0)
(0.137115 0.756217 0)
(0.124631 0.836579 0)
(0.0982576 0.915102 0)
(0.0580027 0.983888 0)
(0.00130719 1.0348 0)
(-0.0730506 1.06037 0)
(-0.165627 1.05644 0)
(-0.282666 1.02125 0)
(-0.436652 0.946031 0)
(-0.623847 0.805335 0)
(-0.811391 0.573449 0)
(-0.963927 0.245935 0)
(-1.09187 -0.152017 0)
(-1.21332 -0.563686 0)
(-1.33057 -0.976542 0)
(-1.42562 -1.34483 0)
(-1.49698 -1.64131 0)
(-1.5513 -1.84724 0)
(-1.59731 -1.93211 0)
(-1.58971 -1.89096 0)
(-1.37728 -1.54224 0)
(0.0647939 0.0593467 0)
(0.131136 0.441039 0)
(0.175155 0.571026 0)
(0.202676 0.6478 0)
(0.219689 0.730416 0)
(0.224161 0.820782 0)
(0.216594 0.911573 0)
(0.200076 0.995416 0)
(0.173128 1.06424 0)
(0.133752 1.11159 0)
(0.0781929 1.13571 0)
(-0.000676283 1.1345 0)
(-0.109708 1.09258 0)
(-0.250041 0.980879 0)
(-0.391695 0.771968 0)
(-0.486409 0.45363 0)
(-0.537147 0.0450068 0)
(-0.656232 -0.373391 0)
(-0.80929 -0.831464 0)
(-0.932835 -1.23961 0)
(-1.01492 -1.57247 0)
(-1.05385 -1.81218 0)
(-1.0491 -1.92217 0)
(-0.982232 -1.85517 0)
(-0.788454 -1.63724 0)
(0.0701902 -0.105244 0)
(0.171607 0.321372 0)
(0.234521 0.511332 0)
(0.27442 0.603793 0)
(0.302617 0.692539 0)
(0.321479 0.789795 0)
(0.333896 0.88891 0)
(0.341393 0.982999 0)
(0.344135 1.06473 0)
(0.338881 1.12962 0)
(0.322765 1.17638 0)
(0.293409 1.20038 0)
(0.24703 1.18096 0)
(0.177888 1.08918 0)
(0.0899339 0.913288 0)
(0.0869264 0.68431 0)
(0.28276 0.357476 0)
(0.0855242 -0.0990578 0)
(-0.153543 -0.624874 0)
(-0.331163 -1.0792 0)
(-0.450064 -1.4563 0)
(-0.509353 -1.75989 0)
(-0.49829 -1.95449 0)
(-0.408362 -2.01709 0)
(-0.231702 -1.926 0)
(0.0759328 -0.309446 0)
(0.218802 0.114368 0)
(0.300473 0.425609 0)
(0.347359 0.551047 0)
(0.382901 0.64641 0)
(0.415211 0.745725 0)
(0.444855 0.848741 0)
(0.475605 0.947384 0)
(0.507656 1.03604 0)
(0.537641 1.11159 0)
(0.560362 1.1739 0)
(0.575178 1.21983 0)
(0.584836 1.2133 0)
(0.580966 1.13068 0)
(0.542554 0.954225 0)
(0.48703 0.727896 0)
(0.642281 0.449778 0)
(0.655412 0.0640487 0)
(0.462627 -0.469986 0)
(0.28755 -0.934158 0)
(0.150921 -1.32634 0)
(0.0698433 -1.67871 0)
(0.0676021 -1.9501 0)
(0.144181 -2.09974 0)
(0.285534 -2.10375 0)
(0.0846423 -0.418437 0)
(0.262309 -0.172165 0)
(0.363565 0.2939 0)
(0.419148 0.48791 0)
(0.459507 0.592967 0)
(0.499718 0.691536 0)
(0.544874 0.791884 0)
(0.596277 0.888899 0)
(0.654857 0.977809 0)
(0.717049 1.05619 0)
(0.776631 1.12427 0)
(0.833354 1.17266 0)
(0.890208 1.16774 0)
(0.942085 1.09685 0)
(0.958521 0.90652 0)
(0.896931 0.642851 0)
(0.907281 0.269729 0)
(0.901597 -0.131523 0)
(0.865445 -0.517041 0)
(0.784042 -0.883948 0)
(0.688866 -1.24516 0)
(0.618411 -1.61451 0)
(0.610698 -1.94708 0)
(0.672075 -2.17681 0)
(0.781792 -2.24594 0)
(0.063504 -0.39191 0)
(0.268132 -0.360157 0)
(0.411487 0.132654 0)
(0.479185 0.413021 0)
(0.52453 0.538711 0)
(0.572287 0.632482 0)
(0.628306 0.72335 0)
(0.696507 0.811645 0)
(0.777659 0.892839 0)
(0.868101 0.965367 0)
(0.960924 1.02885 0)
(1.05188 1.07549 0)
(1.14082 1.07974 0)
(1.23145 1.00009 0)
(1.29903 0.806421 0)
(1.28296 0.527016 0)
(1.27873 0.13447 0)
(1.27593 -0.276328 0)
(1.27091 -0.608793 0)
(1.23779 -0.893647 0)
(1.17595 -1.20615 0)
(1.12387 -1.57387 0)
(1.11971 -1.94367 0)
(1.1706 -2.23129 0)
(1.25266 -2.34098 0)
(0.0431247 -0.393645 0)
(0.205815 -0.467972 0)
(0.418032 -0.0509509 0)
(0.517336 0.319396 0)
(0.573378 0.48203 0)
(0.625089 0.573805 0)
(0.689415 0.651173 0)
(0.770267 0.723976 0)
(0.868602 0.790367 0)
(0.982251 0.848869 0)
(1.10135 0.899528 0)
(1.22138 0.935831 0)
(1.33501 0.935613 0)
(1.45111 0.863849 0)
(1.55613 0.687175 0)
(1.59897 0.421403 0)
(1.62926 0.0800216 0)
(1.65403 -0.282073 0)
(1.66108 -0.601906 0)
(1.64045 -0.881465 0)
(1.6003 -1.18248 0)
(1.57199 -1.55368 0)
(1.58267 -1.94831 0)
(1.62942 -2.27445 0)
(1.68713 -2.40159 0)
(0.0263115 -0.422032 0)
(0.11868 -0.488449 0)
(0.358736 -0.245368 0)
(0.517505 0.193643 0)
(0.59341 0.416362 0)
(0.655133 0.514474 0)
(0.724876 0.579885 0)
(0.81297 0.634221 0)
(0.922542 0.681202 0)
(1.05141 0.720387 0)
(1.19279 0.753702 0)
(1.33836 0.774705 0)
(1.4749 0.768997 0)
(1.61196 0.710762 0)
(1.74219 0.567648 0)
(1.83439 0.335938 0)
(1.90201 0.0361226 0)
(1.94389 -0.297382 0)
(1.95911 -0.608169 0)
(1.95496 -0.885201 0)
(1.94426 -1.18459 0)
(1.95146 -1.562 0)
(1.98547 -1.96995 0)
(2.03163 -2.3108 0)
(2.06683 -2.4327 0)
(0.0258575 -0.482838 0)
(0.067914 -0.599033 0)
(0.246114 -0.419402 0)
(0.460463 0.0442328 0)
(0.578537 0.330486 0)
(0.655018 0.450953 0)
(0.731448 0.509396 0)
(0.823042 0.546382 0)
(0.937514 0.572998 0)
(1.07621 0.591548 0)
(1.23235 0.605082 0)
(1.39902 0.611693 0)
(1.5635 0.5997 0)
(1.72035 0.549546 0)
(1.86617 0.431734 0)
(1.98566 0.230753 0)
(2.07144 -0.0436951 0)
(2.12588 -0.359981 0)
(2.16052 -0.658343 0)
(2.1869 -0.925333 0)
(2.21541 -1.22362 0)
(2.26268 -1.60536 0)
(2.31985 -2.01022 0)
(2.35901 -2.33939 0)
(2.3669 -2.44266 0)
(0.031243 -0.556224 0)
(0.0604599 -0.662386 0)
(0.11559 -0.565253 0)
(0.344209 -0.147008 0)
(0.514758 0.211822 0)
(0.618964 0.372359 0)
(0.705542 0.434363 0)
(0.799716 0.459057 0)
(0.915059 0.466975 0)
(1.05576 0.465284 0)
(1.22176 0.459512 0)
(1.40557 0.44979 0)
(1.59069 0.426838 0)
(1.76518 0.371827 0)
(1.92175 0.259838 0)
(2.05173 0.0756323 0)
(2.14879 -0.180275 0)
(2.22506 -0.472464 0)
(2.29377 -0.743432 0)
(2.35547 -0.993423 0)
(2.42047 -1.29356 0)
(2.50219 -1.67453 0)
(2.56612 -2.05936 0)
(2.58327 -2.34837 0)
(2.55936 -2.42905 0)
(0.0363639 -0.640977 0)
(0.066479 -0.7079 0)
(0.0412783 -0.634047 0)
(0.173226 -0.352724 0)
(0.39289 0.0508255 0)
(0.536876 0.269209 0)
(0.640692 0.347438 0)
(0.739816 0.366561 0)
(0.852859 0.358958 0)
(0.992299 0.33781 0)
(1.15894 0.310187 0)
(1.34721 0.278742 0)
(1.54376 0.236421 0)
(1.73 0.168044 0)
(1.8968 0.0548652 0)
(2.03635 -0.115924 0)
(2.15674 -0.345242 0)
(2.26895 -0.597509 0)
(2.37042 -0.832681 0)
(2.4548 -1.07124 0)
(2.54348 -1.38011 0)
(2.63416 -1.7528 0)
(2.67378 -2.09967 0)
(2.66813 -2.31565 0)
(2.62861 -2.38522 0)
(0.0447155 -0.727763 0)
(0.0899127 -0.741294 0)
(0.0701455 -0.647176 0)
(0.0410114 -0.488719 0)
(0.22412 -0.132547 0)
(0.404637 0.131847 0)
(0.530557 0.240958 0)
(0.63604 0.262131 0)
(0.746121 0.241761 0)
(0.874764 0.199919 0)
(1.03129 0.146614 0)
(1.21354 0.0885273 0)
(1.40737 0.0254115 0)
(1.6009 -0.0516665 0)
(1.78096 -0.155718 0)
(1.94339 -0.300908 0)
(2.09909 -0.494179 0)
(2.24166 -0.705022 0)
(2.35436 -0.913666 0)
(2.44951 -1.1571 0)
(2.55938 -1.47607 0)
(2.64984 -1.82854 0)
(2.67786 -2.11975 0)
(2.66127 -2.28458 0)
(2.59988 -2.32554 0)
(0.0479873 -0.808821 0)
(0.111666 -0.764303 0)
(0.0922445 -0.602508 0)
(0.0292634 -0.493183 0)
(0.0293388 -0.293095 0)
(0.210545 -0.0180454 0)
(0.361014 0.123341 0)
(0.475693 0.149907 0)
(0.580554 0.116234 0)
(0.692433 0.0508028 0)
(0.824201 -0.0325346 0)
(0.983955 -0.115451 0)
(1.17164 -0.189606 0)
(1.37115 -0.260472 0)
(1.5675 -0.342895 0)
(1.76395 -0.462515 0)
(1.94351 -0.622378 0)
(2.08705 -0.80318 0)
(2.20135 -1.00784 0)
(2.32354 -1.27255 0)
(2.46242 -1.59339 0)
(2.56766 -1.90294 0)
(2.59047 -2.12874 0)
(2.55842 -2.24108 0)
(2.50848 -2.26896 0)
(0.0432971 -0.861356 0)
(0.0965347 -0.762485 0)
(0.101172 -0.523138 0)
(0.0279805 -0.372559 0)
(-0.108761 -0.294544 0)
(-0.0542866 -0.142719 0)
(0.0977964 -0.000750511 0)
(0.224546 0.0350666 0)
(0.33038 -0.00790113 0)
(0.417015 -0.0929841 0)
(0.513674 -0.208887 0)
(0.658755 -0.316568 0)
(0.847673 -0.391952 0)
(1.06346 -0.446226 0)
(1.28266 -0.51178 0)
(1.48472 -0.614057 0)
(1.65465 -0.753819 0)
(1.80381 -0.928059 0)
(1.96342 -1.15742 0)
(2.14636 -1.44475 0)
(2.31125 -1.73987 0)
(2.41208 -1.97999 0)
(2.44251 -2.13474 0)
(2.43617 -2.21349 0)
(2.43041 -2.24987 0)
(0.0321158 -0.884863 0)
(0.0580261 -0.705153 0)
(0.0126099 -0.381371 0)
(-0.0929971 -0.170212 0)
(-0.302641 -0.161494 0)
(-0.550506 -0.149917 0)
(-0.370482 -0.0993568 0)
(-0.193951 -0.0868035 0)
(-0.0568388 -0.134361 0)
(-0.00453487 -0.229504 0)
(0.109082 -0.433866 0)
(0.30281 -0.562163 0)
(0.525419 -0.608505 0)
(0.748678 -0.637957 0)
(0.958342 -0.691316 0)
(1.15445 -0.786736 0)
(1.3534 -0.932169 0)
(1.57837 -1.13705 0)
(1.82497 -1.39406 0)
(2.05148 -1.66065 0)
(2.21693 -1.88696 0)
(2.31077 -2.05032 0)
(2.35452 -2.15688 0)
(2.37829 -2.22577 0)
(2.40287 -2.27253 0)
(0.00877579 -0.894739 0)
(-0.0390916 -0.588213 0)
(-0.223595 -0.15057 0)
(-0.474888 0.0194697 0)
(-0.723088 -0.0787567 0)
(-0.833498 -0.170302 0)
(-0.76834 -0.192651 0)
(-0.614968 -0.231941 0)
(-0.375049 -0.35665 0)
(-0.340248 -0.554866 0)
(-0.0775672 -0.747209 0)
(0.164377 -0.809964 0)
(0.386771 -0.817526 0)
(0.593719 -0.833421 0)
(0.805974 -0.89704 0)
(1.04392 -1.02603 0)
(1.31657 -1.21652 0)
(1.60347 -1.44286 0)
(1.86292 -1.66707 0)
(2.06105 -1.85783 0)
(2.19053 -2.00485 0)
(2.267 -2.11417 0)
(2.31263 -2.19664 0)
(2.34654 -2.2598 0)
(2.37817 -2.30744 0)
(-0.039768 -0.875596 0)
(-0.224887 -0.416602 0)
(-0.577317 0.0563196 0)
(-0.879567 0.0885292 0)
(-1.02987 -0.0342814 0)
(-1.08506 -0.20267 0)
(-1.08858 -0.337965 0)
(-1.00528 -0.489887 0)
(-0.835225 -0.630939 0)
(-0.351564 -0.719887 0)
(-0.0313868 -0.855709 0)
(0.2042 -0.937309 0)
(0.442119 -0.978757 0)
(0.670239 -1.04347 0)
(0.918107 -1.17056 0)
(1.19348 -1.35168 0)
(1.47359 -1.55047 0)
(1.72298 -1.73169 0)
(1.91793 -1.87935 0)
(2.05536 -1.99571 0)
(2.14656 -2.08977 0)
(2.20694 -2.16868 0)
(2.25066 -2.23564 0)
(2.28603 -2.29142 0)
(2.319 -2.33696 0)
(-0.107563 -0.804248 0)
(-0.407532 -0.249052 0)
(-0.735986 0.127691 0)
(-0.907952 0.136603 0)
(-1.02027 0.0611419 0)
(-1.0841 -0.0650666 0)
(-1.01986 -0.220156 0)
(-0.841769 -0.393414 0)
(-0.56455 -0.58512 0)
(-0.249023 -0.785819 0)
(0.0230006 -0.999769 0)
(0.279024 -1.10456 0)
(0.539602 -1.19815 0)
(0.80637 -1.32345 0)
(1.07968 -1.48861 0)
(1.34372 -1.66125 0)
(1.57365 -1.80906 0)
(1.75567 -1.92313 0)
(1.89101 -2.01128 0)
(1.98916 -2.08474 0)
(2.06119 -2.15109 0)
(2.11675 -2.21335 0)
(2.1623 -2.27162 0)
(2.20443 -2.32528 0)
(2.24797 -2.37428 0)
(-0.157651 -0.695681 0)
(-0.481772 -0.127744 0)
(-0.731622 0.1648 0)
(-0.891964 0.221497 0)
(-1.01113 0.187393 0)
(-1.05151 0.071725 0)
(-0.961842 -0.12667 0)
(-0.72869 -0.400033 0)
(-0.455806 -0.713798 0)
(-0.183242 -1.01938 0)
(0.0717089 -1.24932 0)
(0.346257 -1.36689 0)
(0.629177 -1.47665 0)
(0.915691 -1.61143 0)
(1.18282 -1.75593 0)
(1.40824 -1.8819 0)
(1.58536 -1.97712 0)
(1.72005 -2.0467 0)
(1.8225 -2.10221 0)
(1.90265 -2.15361 0)
(1.96853 -2.20637 0)
(2.02582 -2.26158 0)
(2.07962 -2.3178 0)
(2.13238 -2.37301 0)
(2.18616 -2.4258 0)
(-0.15646 -0.403631 0)
(-0.478861 -0.023395 0)
(-0.733147 0.240607 0)
(-0.92499 0.34071 0)
(-1.01197 0.29436 0)
(-1.00924 0.0904466 0)
(-0.817627 -0.254339 0)
(-0.605605 -0.60344 0)
(-0.394673 -0.950135 0)
(-0.128484 -1.29033 0)
(0.154755 -1.50961 0)
(0.443577 -1.63467 0)
(0.733622 -1.74136 0)
(1.00742 -1.85471 0)
(1.24143 -1.9631 0)
(1.42455 -2.04801 0)
(1.56185 -2.1055 0)
(1.66598 -2.1454 0)
(1.74938 -2.18081 0)
(1.82122 -2.2205 0)
(1.88703 -2.26731 0)
(1.94993 -2.3198 0)
(2.01047 -2.37496 0)
(2.06994 -2.43006 0)
(2.12888 -2.48318 0)
(-0.110905 -0.156486 0)
(-0.458792 0.175854 0)
(-0.744261 0.42168 0)
(-0.896951 0.486391 0)
(-0.930485 0.362232 0)
(-0.820068 -0.0256711 0)
(-0.627366 -0.385093 0)
(-0.502347 -0.714774 0)
(-0.280014 -1.10212 0)
(-0.00498883 -1.51062 0)
(0.279117 -1.75826 0)
(0.561687 -1.89439 0)
(0.832901 -1.99149 0)
(1.07369 -2.07642 0)
(1.26699 -2.14406 0)
(1.41091 -2.18697 0)
(1.51721 -2.21092 0)
(1.60153 -2.22955 0)
(1.67587 -2.25406 0)
(1.7465 -2.28887 0)
(1.81534 -2.33304 0)
(1.88188 -2.38326 0)
(1.94612 -2.43613 0)
(2.00744 -2.48912 0)
(2.06668 -2.54112 0)
(-0.0555521 0.15671 0)
(-0.39887 0.477915 0)
(-0.660952 0.661143 0)
(-0.769132 0.604856 0)
(-0.699999 0.314777 0)
(-0.504754 -0.0752991 0)
(-0.422684 -0.389087 0)
(-0.324592 -0.747744 0)
(-0.113896 -1.23319 0)
(0.146076 -1.73354 0)
(0.414377 -2.01338 0)
(0.677258 -2.1512 0)
(0.916328 -2.22501 0)
(1.11453 -2.26842 0)
(1.26452 -2.28957 0)
(1.37411 -2.29471 0)
(1.45937 -2.29574 0)
(1.53461 -2.30412 0)
(1.60755 -2.32531 0)
(1.68002 -2.35884 0)
(1.75089 -2.40123 0)
(1.81889 -2.44871 0)
(1.88287 -2.49842 0)
(1.94402 -2.54892 0)
(2.0036 -2.59965 0)
(-0.0157813 0.452574 0)
(-0.283038 0.784403 0)
(-0.471998 0.855298 0)
(-0.482636 0.673903 0)
(-0.307057 0.303069 0)
(-0.129736 -0.0638364 0)
(-0.119614 -0.429315 0)
(-0.0796758 -0.78639 0)
(0.0816399 -1.35328 0)
(0.316221 -1.93403 0)
(0.560906 -2.24709 0)
(0.78937 -2.37458 0)
(0.983645 -2.41434 0)
(1.13409 -2.41473 0)
(1.24455 -2.39785 0)
(1.32942 -2.37895 0)
(1.40395 -2.36995 0)
(1.47713 -2.37653 0)
(1.55113 -2.39809 0)
(1.6244 -2.4308 0)
(1.69481 -2.47054 0)
(1.76099 -2.5143 0)
(1.82362 -2.56043 0)
(1.88317 -2.60824 0)
(1.94091 -2.65768 0)
(0.0201951 0.775953 0)
(-0.116494 0.987638 0)
(-0.208301 0.995996 0)
(-0.129073 0.695749 0)
(0.132699 0.274344 0)
(0.245979 -0.105041 0)
(0.212841 -0.520283 0)
(0.173713 -0.832585 0)
(0.283734 -1.44656 0)
(0.49569 -2.11004 0)
(0.709498 -2.44629 0)
(0.891886 -2.55187 0)
(1.03436 -2.5548 0)
(1.13971 -2.51996 0)
(1.22017 -2.47981 0)
(1.29088 -2.45158 0)
(1.36157 -2.44202 0)
(1.43457 -2.45023 0)
(1.50786 -2.47173 0)
(1.57871 -2.50193 0)
(1.64544 -2.53766 0)
(1.70805 -2.57721 0)
(1.76677 -2.61982 0)
(1.82328 -2.66531 0)
(1.87864 -2.71348 0)
(0.0843941 0.857186 0)
(0.103023 1.09043 0)
(0.0900309 0.989834 0)
(0.193851 0.66822 0)
(0.441829 0.236825 0)
(0.490046 -0.198821 0)
(0.461078 -0.602761 0)
(0.399132 -0.904216 0)
(0.479707 -1.54367 0)
(0.674034 -2.27148 0)
(0.850083 -2.60377 0)
(0.97901 -2.67752 0)
(1.07122 -2.64892 0)
(1.14116 -2.59367 0)
(1.20328 -2.54641 0)
(1.2673 -2.51951 0)
(1.33554 -2.51305 0)
(1.40554 -2.52213 0)
(1.47401 -2.54163 0)
(1.53889 -2.56808 0)
(1.5997 -2.59965 0)
(1.65671 -2.63555 0)
(1.71131 -2.67546 0)
(1.76397 -2.71907 0)
(1.81554 -2.76631 0)