/*--------------------------------*- C++ -*----------------------------------*\
  =========                 |
  \\      /  F ield         | OpenFOAM: The Open Source CFD Toolbox
   \\    /   O peration     | Website:  https://openfoam.org
    \\  /    A nd           | Version:  13
     \\/     M anipulation  |
\*---------------------------------------------------------------------------*/
FoamFile
{
    format      ascii;
    class       volVectorField;
    location    "7";
    object      U;
}
// * * * * * * * * * * * * * * * * * * * * * * * * * * * * * * * * * * * * * //

dimensions      [0 1 -1 0 0 0 0];

internalField   nonuniform List<vector> 
6440
(
(1.5464e-06 -3.28887e-06 0)
(4.7375e-06 -4.24822e-06 0)
(8.11161e-06 -4.00146e-06 3.45789e-20)
(1.08019e-05 -4.37573e-06 -3.44744e-20)
(1.34365e-05 -5.26441e-06 0)
(1.57545e-05 -6.37628e-06 6.87303e-20)
(1.76276e-05 -7.56915e-06 -6.83226e-20)
(1.89756e-05 -8.75717e-06 0)
(1.97218e-05 -9.85317e-06 -1.35677e-19)
(1.97629e-05 -1.07415e-05 1.345e-19)
(1.90256e-05 -1.1312e-05 1.33798e-19)
(1.74817e-05 -1.14644e-05 2.06536e-22)
(1.51591e-05 -1.11234e-05 1.29557e-22)
(1.21466e-05 -1.0252e-05 -1.29685e-19)
(8.59789e-06 -8.86471e-06 -1.28027e-19)
(4.73661e-06 -7.02049e-06 1.26304e-19)
(8.21885e-07 -4.81314e-06 0)
(-2.9264e-06 -2.35836e-06 -2.44066e-19)
(-6.24649e-06 1.77596e-07 6.81421e-22)
(-8.91516e-06 2.51441e-06 2.35753e-19)
(-1.07558e-05 4.30272e-06 -2.30303e-19)
(-1.14664e-05 5.12893e-06 4.51921e-19)
(-1.1904e-05 4.84956e-06 -2.21588e-19)
(-1.01719e-05 1.39542e-06 2.16255e-19)
(-2.77138e-06 -4.30828e-06 -1.99199e-22)
(1.16864e-06 -8.73565e-06 0)
(3.6201e-06 -1.11258e-05 0)
(6.10808e-06 -1.01412e-05 3.6499e-20)
(8.21654e-06 -1.02157e-05 -3.63905e-20)
(1.0351e-05 -1.1163e-05 0)
(1.23566e-05 -1.24638e-05 7.25506e-20)
(1.41585e-05 -1.38964e-05 -7.21263e-20)
(1.56435e-05 -1.53085e-05 0)
(1.67654e-05 -1.66301e-05 0)
(1.74428e-05 -1.77634e-05 0)
(1.75691e-05 -1.85849e-05 0)
(1.70693e-05 -1.89874e-05 1.40223e-19)
(1.59022e-05 -1.88835e-05 -1.3867e-19)
(1.40752e-05 -1.82178e-05 0)
(1.16557e-05 -1.69757e-05 -1.35587e-19)
(8.76608e-06 -1.51847e-05 1.33782e-19)
(5.62173e-06 -1.29494e-05 0)
(2.51639e-06 -1.04409e-05 0)
(-4.45607e-07 -7.73497e-06 -2.53891e-19)
(-3.37496e-06 -4.96045e-06 2.49861e-19)
(-5.89581e-06 -2.58867e-06 -2.43702e-19)
(-7.34736e-06 -1.33932e-06 2.39568e-19)
(-9.01751e-06 -1.22195e-06 2.33128e-19)
(-1.08121e-05 -3.59017e-06 -1.00705e-21)
(-1.57457e-06 -1.18092e-05 -1.67937e-19)
(8.99291e-07 -1.24817e-05 0)
(3.29231e-06 -1.55976e-05 0)
(5.41508e-06 -1.41666e-05 3.65744e-20)
(7.40379e-06 -1.40621e-05 -3.64721e-20)
(9.486e-06 -1.49328e-05 0)
(1.15521e-05 -1.61754e-05 7.27809e-20)
(1.36171e-05 -1.76162e-05 -1.44958e-19)
(1.54877e-05 -1.90675e-05 7.21145e-20)
(1.69998e-05 -2.03785e-05 -1.44045e-19)
(1.81008e-05 -2.1491e-05 1.42881e-19)
(1.86767e-05 -2.22917e-05 1.42435e-19)
(1.85891e-05 -2.26439e-05 3.47147e-22)
(1.77477e-05 -2.24372e-05 -1.39918e-19)
(1.61171e-05 -2.15901e-05 -1.3879e-19)
(1.37333e-05 -2.00679e-05 -5.69156e-23)
(1.07032e-05 -1.78926e-05 1.3546e-19)
(7.22687e-06 -1.51623e-05 0)
(3.58496e-06 -1.20633e-05 -2.62363e-19)
(-1.98431e-07 -8.67049e-06 2.58558e-19)
(-4.17918e-06 -5.07036e-06 0)
(-7.76806e-06 -1.81411e-06 -2.47205e-19)
(-9.9816e-06 2.15215e-07 4.84924e-19)
(-1.15448e-05 9.89337e-07 -2.37689e-19)
(-1.39217e-05 6.93316e-07 2.30805e-19)
(-1.29351e-06 -9.8074e-06 -1.72163e-19)
(7.91339e-07 -1.56194e-05 0)
(3.29496e-06 -1.88428e-05 0)
(5.21022e-06 -1.70935e-05 3.64769e-20)
(7.13296e-06 -1.68841e-05 -3.63809e-20)
(9.18786e-06 -1.76684e-05 0)
(1.12521e-05 -1.88343e-05 7.26891e-20)
(1.33886e-05 -2.02557e-05 -1.44846e-19)
(1.55415e-05 -2.18483e-05 7.20981e-20)
(1.74288e-05 -2.33957e-05 0)
(1.88548e-05 -2.47175e-05 0)
(1.97601e-05 -2.57488e-05 0)
(1.99953e-05 -2.63482e-05 1.42015e-19)
(1.9404e-05 -2.63467e-05 -1.40609e-19)
(1.78994e-05 -2.56165e-05 -1.39726e-19)
(1.54731e-05 -2.4079e-05 1.38148e-19)
(1.2199e-05 -2.17256e-05 0)
(8.237e-06 -1.86298e-05 -2.69385e-19)
(3.87904e-06 -1.4981e-05 2.65834e-19)
(-7.17764e-07 -1.09356e-05 0)
(-5.67182e-06 -6.39962e-06 0)
(-1.03511e-05 -1.90365e-06 0)
(-1.34106e-05 1.28101e-06 0)
(-1.46977e-05 2.88408e-06 0)
(-1.74936e-05 4.96461e-06 2.33049e-19)
(-1.55975e-06 -7.15623e-06 -5.7107e-22)
(7.40757e-07 -1.86736e-05 0)
(3.37549e-06 -2.15094e-05 0)
(5.0982e-06 -1.94791e-05 3.62278e-20)
(6.90604e-06 -1.92246e-05 -3.6138e-20)
(8.83695e-06 -1.99561e-05 0)
(1.07984e-05 -2.11019e-05 7.23021e-20)
(1.28248e-05 -2.25373e-05 -1.44147e-19)
(1.49406e-05 -2.4236e-05 7.17893e-20)
(1.70706e-05 -2.61047e-05 0)
(1.88816e-05 -2.78685e-05 0)
(2.01218e-05 -2.9309e-05 0)
(2.07171e-05 -3.03216e-05 1.42062e-19)
(2.04999e-05 -3.07321e-05 -1.40734e-19)
(1.92964e-05 -3.03349e-05 -1.40122e-19)
(1.70252e-05 -2.89883e-05 1.38624e-19)
(1.37026e-05 -2.66299e-05 0)
(9.4505e-06 -2.32969e-05 -2.71073e-19)
(4.50048e-06 -1.91327e-05 2.67685e-19)
(-7.81881e-07 -1.44151e-05 0)
(-6.30965e-06 -9.20245e-06 0)
(-1.19578e-05 -3.53422e-06 0)
(-1.61685e-05 1.03632e-06 0)
(-1.75183e-05 3.51273e-06 0)
(-2.10002e-05 7.82314e-06 2.34766e-19)
(-2.02268e-06 -4.98397e-06 -1.79354e-19)
(7.14338e-07 -2.17998e-05 0)
(3.47931e-06 -2.38867e-05 0)
(5.00823e-06 -2.15573e-05 3.58466e-20)
(6.65471e-06 -2.12338e-05 -3.57629e-20)
(8.36979e-06 -2.18726e-05 0)
(1.01033e-05 -2.29585e-05 7.1653e-20)
(1.19117e-05 -2.44039e-05 -1.42924e-19)
(1.3833e-05 -2.61723e-05 7.12186e-20)
(1.58881e-05 -2.82402e-05 -1.42825e-19)
(1.7941e-05 -3.04643e-05 1.41854e-19)
(1.96362e-05 -3.25218e-05 0)
(2.06845e-05 -3.41543e-05 1.4158e-19)
(2.09626e-05 -3.51751e-05 5.59169e-22)
(2.02832e-05 -3.53597e-05 -2.79565e-19)
(1.84479e-05 -3.44628e-05 1.38593e-19)
(1.5372e-05 -3.23375e-05 0)
(1.10991e-05 -2.89628e-05 -2.71903e-19)
(5.81466e-06 -2.44514e-05 5.64673e-22)
(-1.18921e-07 -1.90725e-05 1.02786e-21)
(-6.28363e-06 -1.31741e-05 2.60369e-19)
(-1.274e-05 -6.70784e-06 0)
(-1.81746e-05 -6.90727e-07 0)
(-2.00066e-05 2.76715e-06 0)
(-2.4215e-05 9.05742e-06 2.35998e-19)
(-2.43713e-06 -3.66536e-06 -1.82371e-19)
(7.14432e-07 -2.50427e-05 0)
(3.62645e-06 -2.61172e-05 0)
(4.99535e-06 -2.34513e-05 3.53521e-20)
(6.47973e-06 -2.29922e-05 -3.52743e-20)
(7.93306e-06 -2.34474e-05 -7.07625e-20)
(9.33405e-06 -2.43556e-05 1.41283e-19)
(1.0786e-05 -2.56778e-05 -1.4125e-19)
(1.23768e-05 -2.74282e-05 7.04218e-20)
(1.41931e-05 -2.96108e-05 0)
(1.62017e-05 -3.2136e-05 -1.4125e-19)
(1.81585e-05 -3.48417e-05 1.4025e-19)
(1.9748e-05 -3.73151e-05 1.40626e-19)
(2.06813e-05 -3.92444e-05 -1.39453e-19)
(2.07328e-05 -4.03444e-05 -1.39435e-19)
(1.96487e-05 -4.02391e-05 1.381e-19)
(1.71696e-05 -3.86664e-05 0)
(1.31991e-05 -3.55318e-05 -2.71944e-19)
(7.83123e-06 -3.0867e-05 2.68886e-19)
(1.40645e-06 -2.49356e-05 0)
(-5.56178e-06 -1.819e-05 -2.59729e-19)
(-1.27001e-05 -1.09977e-05 2.5643e-19)
(-1.92453e-05 -3.79399e-06 0)
(-2.19655e-05 9.76657e-07 0)
(-2.70723e-05 9.21528e-06 2.36795e-19)
(-2.83606e-06 -3.00207e-06 -8.8236e-22)
(7.45942e-07 -2.84275e-05 0)
(3.84021e-06 -2.83132e-05 0)
(5.12715e-06 -2.52858e-05 3.47609e-20)
(6.51477e-06 -2.46402e-05 -3.46887e-20)
(7.75246e-06 -2.48478e-05 0)
(8.82368e-06 -2.54754e-05 6.97144e-20)
(9.82534e-06 -2.65033e-05 -6.9428e-20)
(1.0903e-05 -2.8017e-05 0)
(1.22808e-05 -3.01309e-05 0)
(1.39428e-05 -3.28217e-05 0)
(1.58482e-05 -3.59563e-05 0)
(1.78102e-05 -3.92903e-05 1.39262e-19)
(1.9407e-05 -4.2263e-05 -1.38164e-19)
(2.0435e-05 -4.46118e-05 0)
(2.04942e-05 -4.58944e-05 0)
(1.9021e-05 -4.55279e-05 0)
(1.57688e-05 -4.31268e-05 0)
(1.07102e-05 -3.8568e-05 0)
(4.01246e-06 -3.21796e-05 -2.64477e-19)
(-3.76133e-06 -2.45012e-05 2.61403e-19)
(-1.19039e-05 -1.6185e-05 0)
(-1.94302e-05 -8.03444e-06 0)
(-2.29946e-05 -2.20933e-06 0)
(-2.96086e-05 8.20255e-06 2.37204e-19)
(-3.34034e-06 -2.94765e-06 -1.87327e-19)
(8.06742e-07 -3.19671e-05 0)
(4.12556e-06 -3.0572e-05 0)
(5.43434e-06 -2.71824e-05 3.40873e-20)
(6.82522e-06 -2.63317e-05 -3.40204e-20)
(7.96197e-06 -2.62843e-05 0)
(8.82201e-06 -2.66211e-05 6.84884e-20)
(9.45298e-06 -2.73022e-05 -1.36818e-19)
(9.95286e-06 -2.83976e-05 6.82862e-20)
(1.0608e-05 -3.00876e-05 0)
(1.17068e-05 -3.26338e-05 0)
(1.32222e-05 -3.58997e-05 -1.37627e-19)
(1.52401e-05 -3.975e-05 2.74236e-19)
(1.73866e-05 -4.38566e-05 -1.36532e-19)
(1.91003e-05 -4.74741e-05 -1.37076e-19)
(2.02122e-05 -5.03124e-05 1.35904e-19)
(2.026e-05 -5.1772e-05 0)
(1.86406e-05 -5.10966e-05 2.69859e-19)
(1.45923e-05 -4.76393e-05 -2.67122e-19)
(7.98679e-06 -4.12641e-05 0)
(-4.53072e-07 -3.25449e-05 0)
(-9.85449e-06 -2.27604e-05 0)
(-1.88993e-05 -1.31456e-05 -2.49335e-19)
(-2.34911e-05 -6.43341e-06 2.46279e-19)
(-3.15668e-05 5.88648e-06 2.37264e-19)
(-3.69287e-06 -3.59202e-06 -1.89302e-19)
(8.92771e-07 -3.56576e-05 0)
(4.47569e-06 -3.29729e-05 0)
(5.92693e-06 -2.92498e-05 0)
(7.44403e-06 -2.82121e-05 0)
(8.60933e-06 -2.79404e-05 0)
(9.40576e-06 -2.80251e-05 0)
(9.86361e-06 -2.84067e-05 0)
(1.00335e-05 -2.91125e-05 0)
(1.00059e-05 -3.02439e-05 1.35149e-19)
(1.01898e-05 -3.21137e-05 -1.34419e-19)
(1.1082e-05 -3.50355e-05 0)
(1.2552e-05 -3.89642e-05 0)
(1.46775e-05 -4.36671e-05 0)
(1.7167e-05 -4.86824e-05 0)
(1.92799e-05 -5.31213e-05 0)
(2.06812e-05 -5.64561e-05 0)
(2.06826e-05 -5.79023e-05 0)
(1.84197e-05 -5.65315e-05 2.6573e-19)
(1.33345e-05 -5.15783e-05 -2.63048e-19)
(4.903e-06 -4.28121e-05 0)
(-6.04368e-06 -3.12604e-05 2.54622e-19)
(-1.71452e-05 -1.92944e-05 -2.51748e-19)
(-2.31745e-05 -1.09925e-05 0)
(-3.29251e-05 3.14806e-06 0)
(-3.8597e-06 -4.37655e-06 0)
(9.97819e-07 -3.9473e-05 0)
(4.87883e-06 -3.55792e-05 0)
(6.59074e-06 -3.15952e-05 0)
(8.36646e-06 -3.04305e-05 0)
(9.72998e-06 -3.00045e-05 0)
(1.06531e-05 -2.98968e-05 0)
(1.11435e-05 -3.00318e-05 -6.58537e-20)
(1.12125e-05 -3.04263e-05 6.55892e-20)
(1.09088e-05 -3.11516e-05 1.32544e-19)
(1.0443e-05 -3.2325e-05 -1.31867e-19)
(1.01449e-05 -3.42865e-05 -1.33183e-19)
(1.07415e-05 -3.75795e-05 1.32362e-19)
(1.2327e-05 -4.21501e-05 0)
(1.47473e-05 -4.78189e-05 -1.33496e-19)
(1.77229e-05 -5.3818e-05 -9.03125e-22)
(2.0426e-05 -5.91796e-05 1.32288e-19)
(2.22007e-05 -6.30151e-05 0)
(2.20278e-05 -6.41315e-05 2.63607e-19)
(1.8737e-05 -6.12835e-05 -2.61075e-19)
(1.1556e-05 -5.38542e-05 0)
(5.20481e-07 -4.18727e-05 0)
(-1.26777e-05 -2.74944e-05 -2.48673e-19)
(-2.13806e-05 -1.63367e-05 2.45917e-19)
(-3.37057e-05 4.71566e-07 0)
(-3.7947e-06 -4.88444e-06 0)
(1.10729e-06 -4.33622e-05 0)
(5.30025e-06 -3.84427e-05 0)
(7.38868e-06 -3.43318e-05 0)
(9.57672e-06 -3.31558e-05 0)
(1.13423e-05 -3.27039e-05 0)
(1.2631e-05 -3.25296e-05 0)
(1.33979e-05 -3.25152e-05 0)
(1.36059e-05 -3.26456e-05 0)
(1.32804e-05 -3.29756e-05 0)
(1.25732e-05 -3.36433e-05 0)
(1.16788e-05 -3.48718e-05 1.30658e-19)
(1.10149e-05 -3.69247e-05 -1.29896e-19)
(1.13163e-05 -4.04818e-05 0)
(1.30498e-05 -4.55474e-05 0)
(1.6038e-05 -5.20407e-05 0)
(1.96707e-05 -5.89779e-05 0)
(2.31189e-05 -6.53566e-05 0)
(2.52586e-05 -6.94967e-05 0)
(2.45176e-05 -6.96894e-05 0)
(1.93317e-05 -6.4349e-05 0)
(8.93423e-06 -5.29957e-05 0)
(-5.55353e-06 -3.7167e-05 2.47981e-19)
(-1.69918e-05 -2.3246e-05 -2.45363e-19)
(-3.30018e-05 -2.82161e-06 0)
(-3.48146e-06 -5.15196e-06 0)
(1.19911e-06 -4.72425e-05 0)
(5.68559e-06 -4.15855e-05 0)
(8.24525e-06 -3.75448e-05 0)
(1.09945e-05 -3.65433e-05 0)
(1.33788e-05 -3.62793e-05 -6.20652e-20)
(1.53192e-05 -3.62692e-05 6.19044e-20)
(1.67152e-05 -3.63308e-05 0)
(1.74421e-05 -3.63742e-05 0)
(1.73952e-05 -3.64148e-05 1.267e-19)
(1.66111e-05 -3.66294e-05 -2.53467e-19)
(1.53687e-05 -3.71713e-05 -1.23068e-21)
(1.40957e-05 -3.81137e-05 1.27226e-19)
(1.34182e-05 -3.99229e-05 0)
(1.38628e-05 -4.32474e-05 0)
(1.58573e-05 -4.86828e-05 -1.29311e-19)
(1.92175e-05 -5.57904e-05 1.28362e-19)
(2.36006e-05 -6.35502e-05 2.58506e-19)
(2.79847e-05 -7.08091e-05 1.51134e-21)
(3.02329e-05 -7.49204e-05 -2.5565e-19)
(2.81117e-05 -7.32662e-05 -2.54673e-19)
(1.96334e-05 -6.39987e-05 2.52257e-19)
(4.607e-06 -4.75909e-05 -2.47115e-19)
(-9.66305e-06 -3.09814e-05 2.44625e-19)
(-3.02717e-05 -6.50078e-06 0)
(-2.54277e-06 -4.9834e-06 0)
(1.2503e-06 -5.09971e-05 0)
(5.97374e-06 -4.49845e-05 0)
(9.06068e-06 -4.12627e-05 0)
(1.2485e-05 -4.06777e-05 0)
(1.56772e-05 -4.08885e-05 0)
(1.85443e-05 -4.13809e-05 0)
(2.09322e-05 -4.18993e-05 0)
(2.25818e-05 -4.22676e-05 0)
(2.31725e-05 -4.24293e-05 1.23467e-19)
(2.2769e-05 -4.24097e-05 -1.22933e-19)
(2.18697e-05 -4.21526e-05 0)
(2.07335e-05 -4.18115e-05 0)
(1.95206e-05 -4.16966e-05 0)
(1.85576e-05 -4.24952e-05 0)
(1.87813e-05 -4.504e-05 0)
(2.1246e-05 -5.02621e-05 0)
(2.53413e-05 -5.75921e-05 0)
(3.04776e-05 -6.62919e-05 2.54473e-19)
(3.55036e-05 -7.41155e-05 -2.52387e-19)
(3.72664e-05 -7.78515e-05 0)
(3.23096e-05 -7.31239e-05 0)
(1.8436e-05 -5.82809e-05 0)
(1.86274e-06 -3.95849e-05 0)
(-2.45307e-05 -1.01735e-05 0)
(-6.15557e-07 -3.4932e-06 0)
(1.24197e-06 -5.44878e-05 0)
(6.11212e-06 -4.85767e-05 0)
(9.73506e-06 -4.54557e-05 0)
(1.38867e-05 -4.5558e-05 0)
(1.8002e-05 -4.65704e-05 0)
(2.19945e-05 -4.79758e-05 0)
(2.56561e-05 -4.94453e-05 0)
(2.85554e-05 -5.07171e-05 0)
(3.03416e-05 -5.15637e-05 0)
(3.12658e-05 -5.16155e-05 0)
(3.15671e-05 -5.08449e-05 -1.21814e-19)
(3.11759e-05 -4.94312e-05 1.2121e-19)
(3.01367e-05 -4.74935e-05 0)
(2.87943e-05 -4.54343e-05 0)
(2.77958e-05 -4.40037e-05 -1.2466e-19)
(2.80024e-05 -4.4634e-05 1.23828e-19)
(3.02269e-05 -4.85767e-05 2.5063e-19)
(3.49462e-05 -5.59618e-05 -2.48778e-19)
(4.08291e-05 -6.51563e-05 0)
(4.58654e-05 -7.4063e-05 0)
(4.61473e-05 -7.63564e-05 0)
(3.59907e-05 -6.70206e-05 -2.45094e-19)
(1.87325e-05 -4.8493e-05 4.83253e-19)
(-1.42245e-05 -1.34317e-05 -2.3814e-19)
(2.99582e-06 6.58304e-07 0)
(1.16487e-06 -5.75703e-05 0)
(6.06933e-06 -5.2274e-05 0)
(1.01882e-05 -5.00578e-05 0)
(1.50435e-05 -5.11178e-05 0)
(2.00907e-05 -5.32489e-05 0)
(2.52798e-05 -5.5966e-05 0)
(3.03627e-05 -5.89198e-05 5.72451e-20)
(3.48649e-05 -6.17057e-05 -5.70709e-20)
(3.86877e-05 -6.38803e-05 1.16324e-19)
(4.17915e-05 -6.50275e-05 -1.15872e-19)
(4.39518e-05 -6.49364e-05 1.18343e-19)
(4.52119e-05 -6.32847e-05 -1.17782e-19)
(4.56546e-05 -5.99661e-05 0)
(4.52275e-05 -5.51763e-05 1.21224e-19)
(4.40484e-05 -4.96649e-05 -1.20501e-19)
(4.2823e-05 -4.4492e-05 0)
(4.24362e-05 -4.14305e-05 0)
(4.44928e-05 -4.2632e-05 2.47052e-19)
(4.87234e-05 -4.85321e-05 2.15468e-21)
(5.51587e-05 -5.85748e-05 -2.4548e-19)
(6.01947e-05 -6.77688e-05 0)
(5.6181e-05 -6.7704e-05 2.44137e-19)
(4.20887e-05 -5.48556e-05 -2.41951e-19)
(3.07838e-06 -1.46976e-05 0)
(9.63397e-06 1.02177e-05 1.97679e-19)
(1.01673e-06 -6.00994e-05 0)
(5.82415e-06 -5.59542e-05 0)
(1.03606e-05 -5.49297e-05 0)
(1.58379e-05 -5.71789e-05 0)
(2.17355e-05 -6.06604e-05 0)
(2.80334e-05 -6.49584e-05 0)
(3.45669e-05 -6.97342e-05 0)
(4.0986e-05 -7.45975e-05 0)
(4.69812e-05 -7.90648e-05 0)
(5.24297e-05 -8.25007e-05 0)
(5.74832e-05 -8.42947e-05 0)
(6.21024e-05 -8.38879e-05 0)
(6.57383e-05 -8.08358e-05 0)
(6.77993e-05 -7.48776e-05 0)
(6.83741e-05 -6.66275e-05 0)
(6.76851e-05 -5.64856e-05 0)
(6.60542e-05 -4.53447e-05 0)
(6.50072e-05 -3.57179e-05 0)
(6.5518e-05 -3.04848e-05 0)
(6.94332e-05 -3.18417e-05 0)
(7.59589e-05 -4.17618e-05 0)
(7.84787e-05 -5.10347e-05 0)
(7.2033e-05 -5.05359e-05 0)
(3.03317e-05 -9.96647e-06 0)
(2.12897e-05 3.15996e-05 0)
(8.06193e-07 -6.19061e-05 -1.17014e-20)
(5.40469e-06 -5.93723e-05 -1.30484e-20)
(1.02678e-05 -5.9791e-05 2.60249e-20)
(1.62589e-05 -6.34613e-05 -5.24158e-20)
(2.28773e-05 -6.84478e-05 5.23323e-20)
(3.01642e-05 -7.43539e-05 0)
(3.79688e-05 -8.09859e-05 -5.33013e-20)
(4.58726e-05 -8.80719e-05 -5.42403e-20)
(5.39972e-05 -9.49155e-05 2.15332e-19)
(6.25454e-05 -0.000100901 -1.07894e-19)
(7.12846e-05 -0.000105385 -1.10324e-19)
(7.98716e-05 -0.000107875 1.09848e-19)
(8.78221e-05 -0.000107772 1.12705e-19)
(9.41325e-05 -0.000104042 -2.26124e-19)
(9.85588e-05 -9.58934e-05 -1.91928e-21)
(0.000101717 -8.34514e-05 -1.18564e-19)
(0.000103074 -6.74263e-05 2.31786e-19)
(0.000102702 -4.89023e-05 2.38063e-19)
(0.000101427 -2.89575e-05 -4.76596e-19)
(9.94912e-05 -1.20822e-05 2.38443e-19)
(0.000100453 -4.23431e-06 0)
(0.000105021 -9.23706e-06 -2.43323e-19)
(0.000108159 -2.20598e-05 4.83726e-19)
(7.01888e-05 1.14649e-05 -2.40209e-19)
(4.13334e-05 8.17184e-05 -2.05018e-19)
(6.0946e-07 -6.29304e-05 0)
(4.92028e-06 -6.25017e-05 0)
(9.9021e-06 -6.46484e-05 0)
(1.62626e-05 -6.98259e-05 0)
(2.36292e-05 -7.63173e-05 0)
(3.18449e-05 -8.3828e-05 0)
(4.06513e-05 -9.22539e-05 0)
(5.02146e-05 -0.000101026 0)
(6.07018e-05 -0.000109564 0)
(7.18885e-05 -0.00011756 0)
(8.36717e-05 -0.000124655 0)
(9.58845e-05 -0.000130443 0)
(0.000108266 -0.000134286 0)
(0.000120474 -0.000135368 0)
(0.000132093 -0.000132206 0)
(0.000141737 -0.000123525 0)
(0.000148587 -0.000108552 0)
(0.000154763 -8.6796e-05 0)
(0.000158222 -5.84285e-05 2.34721e-19)
(0.000158245 -2.64477e-05 -2.33151e-19)
(0.000156422 8.60853e-06 0)
(0.000152306 3.60984e-05 0)
(0.000156465 4.19237e-05 0)
(0.000129995 9.00978e-05 0)
(8.242e-05 0.000238461 0)
(4.23193e-07 -6.3435e-05 0)
(4.30963e-06 -6.56518e-05 0)
(9.38505e-06 -6.96941e-05 0)
(1.6168e-05 -7.62875e-05 0)
(2.41433e-05 -8.40637e-05 0)
(3.30761e-05 -9.27009e-05 0)
(4.32098e-05 -0.000101941 0)
(5.46486e-05 -0.000111402 0)
(6.71534e-05 -0.00012089 0)
(8.0671e-05 -0.000130104 0)
(9.51412e-05 -0.00013873 1.01368e-19)
(0.000110523 -0.000146509 -1.00966e-19)
(0.000126756 -0.0001531 0)
(0.000143697 -0.000158068 0)
(0.000161096 -0.000160739 0)
(0.000178595 -0.000160032 0)
(0.000196722 -0.000154039 0)
(0.000214469 -0.000141299 0)
(0.000228458 -0.000121547 0)
(0.000242218 -9.46959e-05 0)
(0.000254457 -6.06713e-05 0)
(0.000260423 -2.04676e-05 2.44368e-19)
(0.000278843 3.75527e-06 -2.42462e-19)
(0.000295496 4.29672e-05 0)
(-1.02893e-05 0.000580644 0)
(2.28185e-07 -6.43249e-05 0)
(3.84309e-06 -6.90153e-05 0)
(9.17685e-06 -7.42273e-05 0)
(1.64564e-05 -8.11872e-05 0)
(2.52704e-05 -8.87289e-05 0)
(3.55929e-05 -9.6555e-05 0)
(4.73277e-05 -0.000104389 0)
(6.04209e-05 -0.000112232 0)
(7.49132e-05 -0.000119837 0)
(9.0819e-05 -0.000126898 0)
(0.000108129 -0.000133149 0)
(0.00012685 -0.000138309 0)
(0.000147009 -0.000142133 0)
(0.000168653 -0.000144275 0)
(0.000192071 -0.000144262 0)
(0.000217809 -0.000141297 0)
(0.000245735 -0.000134257 0)
(0.000275168 -0.000122745 0)
(0.000306855 -0.000103968 0)
(0.000345324 -7.4278e-05 0)
(0.000395037 -3.53688e-05 0)
(0.000462669 1.82168e-05 0)
(0.000576761 9.1436e-05 0)
(0.000802025 0.000183738 0)
(0.00158658 0.000830996 0)
(1.44157e-07 -6.59056e-05 0)
(3.79036e-06 -7.33477e-05 0)
(9.42638e-06 -8.03239e-05 0)
(1.72577e-05 -8.86092e-05 0)
(2.68322e-05 -9.71214e-05 0)
(3.80462e-05 -0.000105763 0)
(5.08111e-05 -0.000114476 0)
(6.50954e-05 -0.000123041 0)
(8.09456e-05 -0.000131232 0)
(9.83852e-05 -0.000138803 0)
(0.000117415 -0.000145549 0)
(0.000138074 -0.000151262 0)
(0.00016045 -0.000155745 0)
(0.000184683 -0.000158747 0)
(0.000211045 -0.000159943 0)
(0.000239937 -0.000159052 0)
(0.000271703 -0.000155813 0)
(0.000307294 -0.00014916 0)
(0.000347834 -0.000137177 0)
(0.000395676 -0.000118761 0)
(0.000455606 -9.56173e-05 0)
(0.000535505 -7.04724e-05 0)
(0.000649064 -4.99106e-05 0)
(0.000792731 -6.07248e-05 0)
(0.000881929 -0.000169127 0)
(6.97036e-08 -6.75677e-05 0)
(3.78039e-06 -7.81068e-05 0)
(9.67511e-06 -8.72682e-05 0)
(1.797e-05 -9.73702e-05 0)
(2.81849e-05 -0.000107515 0)
(4.0179e-05 -0.000117662 0)
(5.38748e-05 -0.000127773 0)
(6.92436e-05 -0.00013767 0)
(8.63032e-05 -0.000147143 0)
(0.000105077 -0.000155983 0)
(0.000125591 -0.000163991 0)
(0.000147905 -0.000170979 0)
(0.00017212 -0.000176778 0)
(0.000198393 -0.00018121 0)
(0.000226967 -0.000184064 0)
(0.000258193 -0.000185109 0)
(0.00029256 -0.00018402 0)
(0.000330932 -0.000180151 0)
(0.000374469 -0.000173128 0)
(0.000425204 -0.000162398 0)
(0.000485301 -0.000148958 0)
(0.000556424 -0.000136715 0)
(0.000636903 -0.000134095 0)
(0.000706512 -0.000159045 0)
(0.000703085 -0.000218834 0)
(7.8772e-09 -6.92231e-05 0)
(3.7551e-06 -8.30694e-05 0)
(9.84784e-06 -9.46501e-05 0)
(1.85065e-05 -0.000106821 0)
(2.92369e-05 -0.00011884 0)
(4.18788e-05 -0.00013074 0)
(5.63465e-05 -0.000142525 0)
(7.26068e-05 -0.000154078 0)
(9.06589e-05 -0.000165208 0)
(0.000110522 -0.000175716 0)
(0.000132226 -0.000185416 0)
(0.000155823 -0.000194145 0)
(0.000181399 -0.000201769 0)
(0.000209079 -0.000208161 0)
(0.000239044 -0.000213186 0)
(0.000271544 -0.000216679 0)
(0.000306932 -0.000218402 0)
(0.000345715 -0.000218023 0)
(0.00038853 -0.000215304 0)
(0.000436105 -0.000210118 0)
(0.000488411 -0.000203449 0)
(0.000543679 -0.000197102 0)
(0.000594287 -0.00019459 0)
(0.000622102 -0.000197196 0)
(0.000599141 -0.000190129 0)
(-5.40805e-08 -7.08244e-05 0)
(3.67871e-06 -8.81176e-05 0)
(9.88552e-06 -0.00010229 0)
(1.87967e-05 -0.000116706 0)
(2.98997e-05 -0.000130766 0)
(4.30264e-05 -0.000144588 0)
(5.80815e-05 -0.000158233 0)
(7.50175e-05 -0.000171621 0)
(9.38207e-05 -0.000184588 0)
(0.000114493 -0.00019695 0)
(0.000137048 -0.000208536 0)
(0.000161517 -0.000219206 0)
(0.000187945 -0.000228847 0)
(0.000216397 -0.000237365 0)
(0.000246956 -0.00024466 0)
(0.000279722 -0.000250609 0)
(0.000314807 -0.00025503 0)
(0.000352322 -0.000257664 0)
(0.000392276 -0.000258205 0)
(0.000434388 -0.00025633 0)
(0.000477434 -0.000251874 0)
(0.000517936 -0.00024434 0)
(0.000549257 -0.000232338 0)
(0.000560849 -0.000208917 0)
(0.000541795 -0.000156549 0)
(-1.18024e-07 -7.23477e-05 0)
(3.54969e-06 -9.3177e-05 0)
(9.79866e-06 -0.000110065 0)
(1.88557e-05 -0.000126841 0)
(3.0206e-05 -0.000143049 0)
(4.36716e-05 -0.000158889 0)
(5.91449e-05 -0.000174473 0)
(7.65649e-05 -0.000189758 0)
(9.58952e-05 -0.000204605 0)
(0.000117118 -0.000218844 0)
(0.000140222 -0.000232315 0)
(0.000165201 -0.000244889 0)
(0.000192054 -0.000256459 0)
(0.000220772 -0.000266934 0)
(0.000251335 -0.000276211 0)
(0.00028369 -0.000284154 0)
(0.000317727 -0.000290548 0)
(0.000353231 -0.00029505 0)
(0.000389774 -0.000297146 0)
(0.000426528 -0.000296044 0)
(0.000461876 -0.000290545 0)
(0.000492846 -0.000278468 0)
(0.00051526 -0.000255238 0)
(0.000523916 -0.000212503 0)
(0.00051643 -0.000136562 0)
(-1.84311e-07 -7.37699e-05 0)
(3.37403e-06 -9.8191e-05 0)
(9.59828e-06 -0.000117892 0)
(1.87122e-05 -0.00013712 0)
(3.01983e-05 -0.000155564 0)
(4.38744e-05 -0.000173498 0)
(5.96196e-05 -0.000191084 0)
(7.73526e-05 -0.00020831 0)
(9.70189e-05 -0.000225059 0)
(0.000118574 -0.000241171 0)
(0.000141977 -0.000256494 0)
(0.000167188 -0.000270894 0)
(0.000194153 -0.000284259 0)
(0.0002228 -0.000296475 0)
(0.000253019 -0.000307407 0)
(0.000284641 -0.000316861 0)
(0.000317406 -0.000324534 0)
(0.000350913 -0.000329937 0)
(0.00038455 -0.000332301 0)
(0.000417377 -0.000330417 0)
(0.000447994 -0.000322382 0)
(0.000474459 -0.000305124 0)
(0.000494657 -0.000273622 0)
(0.000507149 -0.000220054 0)
(0.000513462 -0.000134818 0)
(-2.52507e-07 -7.50694e-05 0)
(3.1578e-06 -0.000103112 0)
(9.3055e-06 -0.000125696 0)
(1.8397e-05 -0.000147452 0)
(2.99271e-05 -0.000168201 0)
(4.37043e-05 -0.00018829 0)
(5.95944e-05 -0.000207921 0)
(7.75011e-05 -0.000227114 0)
(9.73454e-05 -0.000245767 0)
(0.000119061 -0.000263729 0)
(0.00014258 -0.000280848 0)
(0.000167826 -0.000296982 0)
(0.000194706 -0.000311996 0)
(0.0002231 -0.000325746 0)
(0.000252837 -0.000338047 0)
(0.000283684 -0.000348629 0)
(0.000315313 -0.000357087 0)
(0.000347273 -0.000362788 0)
(0.00037896 -0.000364768 0)
(0.000409588 -0.000361565 0)
(0.000438206 -0.000351 0)
(0.00046384 -0.000329865 0)
(0.000485941 -0.0002936 0)
(0.000505273 -0.000236056 0)
(0.000524766 -0.000150302 0)
(-3.2188e-07 -7.62284e-05 0)
(2.9117e-06 -0.000107901 0)
(8.93766e-06 -0.000133418 0)
(1.79474e-05 -0.000157758 0)
(2.94431e-05 -0.000180869 0)
(4.3231e-05 -0.000203157 0)
(5.91658e-05 -0.000224864 0)
(7.71322e-05 -0.000246036 0)
(9.70364e-05 -0.000266585 0)
(0.000118787 -0.000286366 0)
(0.000142295 -0.000305222 0)
(0.000167458 -0.000322997 0)
(0.000194155 -0.000339536 0)
(0.000222235 -0.000354655 0)
(0.000251505 -0.000368117 0)
(0.00028171 -0.000379587 0)
(0.000312528 -0.000388569 0)
(0.000343552 -0.000394334 0)
(0.000374302 -0.000395814 0)
(0.000404256 -0.000391472 0)
(0.00043294 -0.000379157 0)
(0.000460142 -0.000355942 0)
(0.000486303 -0.000318063 0)
(0.000513162 -0.000261133 0)
(0.0005442 -0.00018039 0)
(-3.91002e-07 -7.72351e-05 0)
(2.64335e-06 -0.000112527 0)
(8.51785e-06 -0.000141011 0)
(1.73948e-05 -0.000167978 0)
(2.87967e-05 -0.000193493 0)
(4.25248e-05 -0.000218014 0)
(5.84234e-05 -0.00024182 0)
(7.63676e-05 -0.000264977 0)
(9.62433e-05 -0.00028741 0)
(0.000117946 -0.000308979 0)
(0.000141368 -0.000329519 0)
(0.000166389 -0.000348865 0)
(0.000192876 -0.000366835 0)
(0.000220669 -0.000383217 0)
(0.000249573 -0.000397729 0)
(0.000279356 -0.000409986 0)
(0.000309741 -0.00041944 0)
(0.000340423 -0.00042532 0)
(0.000371093 -0.000426544 0)
(0.000401502 -0.00042164 0)
(0.00043158 -0.000408663 0)
(0.000461636 -0.00038515 0)
(0.000492656 -0.000348191 0)
(0.000526677 -0.000294709 0)
(0.000567149 -0.000221981 0)
(-4.57603e-07 -7.80824e-05 0)
(2.36497e-06 -0.000116967 0)
(8.06198e-06 -0.000148439 0)
(1.67731e-05 -0.000178064 0)
(2.8034e-05 -0.000206014 0)
(4.16481e-05 -0.000232796 0)
(5.74541e-05 -0.000258717 0)
(7.53133e-05 -0.000283864 0)
(9.51043e-05 -0.000308173 0)
(0.000116708 -0.000331505 0)
(0.000140005 -0.000353695 0)
(0.000164871 -0.000374564 0)
(0.000191169 -0.000393916 0)
(0.000218743 -0.000411513 0)
(0.000247423 -0.00042705 0)
(0.000277016 -0.000440113 0)
(0.000307321 -0.00045014 0)
(0.000338147 -0.000456368 0)
(0.000369357 -0.000457777 0)
(0.00040094 -0.00045304 0)
(0.000433123 -0.000440504 0)
(0.000466533 -0.000418203 0)
(0.000502404 -0.000383987 0)
(0.000542797 -0.000335793 0)
(0.000590754 -0.000272111 0)
(-5.19036e-07 -7.87675e-05 0)
(2.08417e-06 -0.000121209 0)
(7.59059e-06 -0.000155677 0)
(1.61081e-05 -0.000187981 0)
(2.71968e-05 -0.00021839 0)
(4.06591e-05 -0.000247454 0)
(5.6329e-05 -0.000275506 0)
(7.40646e-05 -0.000302648 0)
(9.37323e-05 -0.000328829 0)
(0.000115209 -0.000353913 0)
(0.000138371 -0.000377735 0)
(0.000163093 -0.00040011 0)
(0.000189244 -0.000420831 0)
(0.000216687 -0.000439652 0)
(0.000245283 -0.000456256 0)
(0.000274892 -0.000470229 0)
(0.000305392 -0.000481025 0)
(0.000336704 -0.00048793 0)
(0.000368839 -0.000490031 0)
(0.000401968 -0.000486191 0)
(0.000436512 -0.000475064 0)
(0.000473268 -0.000455147 0)
(0.000513538 -0.000424911 0)
(0.000559249 -0.000383038 0)
(0.000612992 -0.000328764 0)
(-5.74622e-07 -7.92916e-05 0)
(1.81027e-06 -0.000125247 0)
(7.1152e-06 -0.00016271 0)
(1.54265e-05 -0.000197705 0)
(2.63196e-05 -0.000230592 0)
(3.96031e-05 -0.000261956 0)
(5.5111e-05 -0.000292152 0)
(7.26938e-05 -0.000321299 0)
(9.22184e-05 -0.000349354 0)
(0.000113556 -0.000376191 0)
(0.000136584 -0.000401644 0)
(0.000161183 -0.000425531 0)
(0.000187236 -0.000447643 0)
(0.000214628 -0.000467735 0)
(0.000243255 -0.000485496 0)
(0.000273033 -0.000500533 0)
(0.000303913 -0.00051234 0)
(0.000335911 -0.00052028 0)
(0.000369154 -0.000523567 0)
(0.000403934 -0.000521268 0)
(0.000440786 -0.000512328 0)
(0.000480572 -0.00049564 0)
(0.000524556 -0.000470164 0)
(0.000574467 -0.000435116 0)
(0.000632478 -0.000390218 0)
(-6.23963e-07 -7.96599e-05 0)
(1.54639e-06 -0.00012908 0)
(6.65105e-06 -0.000169529 0)
(1.47451e-05 -0.000207222 0)
(2.54307e-05 -0.0002426 0)
(3.85189e-05 -0.000276278 0)
(5.38439e-05 -0.000308632 0)
(7.12591e-05 -0.000339795 0)
(9.06259e-05 -0.000369736 0)
(0.00011182 -0.000398335 0)
(0.000134721 -0.000425435 0)
(0.000159218 -0.000450859 0)
(0.000185211 -0.000474407 0)
(0.000212611 -0.000495843 0)
(0.000241348 -0.00051488 0)
(0.000271387 -0.000531155 0)
(0.00030274 -0.000544222 0)
(0.000335498 -0.000553534 0)
(0.000369868 -0.000558442 0)
(0.000406216 -0.000558206 0)
(0.000445126 -0.000552032 0)
(0.000487455 -0.000539136 0)
(0.000534376 -0.00051885 0)
(0.000587397 -0.000490769 0)
(0.000648323 -0.000454924 0)
(-6.68395e-07 -7.9881e-05 0)
(1.29766e-06 -0.000132714 0)
(6.20352e-06 -0.000176134 0)
(1.4081e-05 -0.000216523 0)
(2.45501e-05 -0.000254401 0)
(3.74314e-05 -0.000290407 0)
(5.25632e-05 -0.000324932 0)
(6.97961e-05 -0.000358124 0)
(8.89977e-05 -0.000389964 0)
(0.000110043 -0.000420345 0)
(0.00013282 -0.000449117 0)
(0.000157229 -0.000476117 0)
(0.000183185 -0.000501159 0)
(0.000210622 -0.000524027 0)
(0.000239504 -0.000544462 0)
(0.000269835 -0.00056215 0)
(0.000301674 -0.000576707 0)
(0.000335164 -0.000587684 0)
(0.00037056 -0.000594564 0)
(0.000408264 -0.000596782 0)
(0.000448864 -0.000593766 0)
(0.000493171 -0.00058499 0)
(0.000542237 -0.000570066 0)
(0.000597354 -0.000548848 0)
(0.000660009 -0.000521562 0)
(-7.07538e-07 -7.99666e-05 0)
(1.06454e-06 -0.000136156 0)
(5.78206e-06 -0.000182525 0)
(1.34412e-05 -0.000225606 0)
(2.36919e-05 -0.000265988 0)
(3.63596e-05 -0.00030433 0)
(5.12862e-05 -0.000341039 0)
(6.8329e-05 -0.000376276 0)
(8.73537e-05 -0.000410033 0)
(0.000108244 -0.000442217 0)
(0.000130893 -0.000472694 0)
(0.000155212 -0.000501314 0)
(0.000181132 -0.000527912 0)
(0.000208608 -0.000552299 0)
(0.000237629 -0.000574253 0)
(0.000268227 -0.000593507 0)
(0.000300497 -0.000609751 0)
(0.000334612 -0.000622626 0)
(0.00037085 -0.000631738 0)
(0.000409617 -0.000636676 0)
(0.000451479 -0.00063705 0)
(0.000497173 -0.000632535 0)
(0.000547623 -0.000622948 0)
(0.000603918 -0.000608324 0)
(0.000667273 -0.000589002 0)
(-7.41254e-07 -7.99291e-05 0)
(8.51431e-07 -0.000139415 0)
(5.38666e-06 -0.000188708 0)
(1.28339e-05 -0.00023447 0)
(2.2863e-05 -0.000277356 0)
(3.53108e-05 -0.000318041 0)
(5.00255e-05 -0.000356944 0)
(6.68641e-05 -0.000394238 0)
(8.57012e-05 -0.00042993 0)
(0.000106421 -0.000463941 0)
(0.000128928 -0.000496154 0)
(0.000153142 -0.000526439 0)
(0.000179006 -0.000554653 0)
(0.000206492 -0.000580639 0)
(0.000235607 -0.000604213 0)
(0.000266405 -0.000625163 0)
(0.000298998 -0.000643244 0)
(0.000333574 -0.000658187 0)
(0.000370414 -0.000669703 0)
(0.00040991 -0.000677514 0)
(0.000452581 -0.000681374 0)
(0.000499083 -0.000681116 0)
(0.000550209 -0.000676704 0)
(0.000606865 -0.000668292 0)
(0.000670036 -0.000656284 0)
(-7.69069e-07 -7.97814e-05 0)
(6.56938e-07 -0.000142502 0)
(5.02239e-06 -0.000194688 0)
(1.22586e-05 -0.000243118 0)
(2.20666e-05 -0.000288502 0)
(3.42893e-05 -0.000331532 0)
(4.87794e-05 -0.000372635 0)