/*--------------------------------*- C++ -*----------------------------------*\
  =========                 |
  \\      /  F ield         | OpenFOAM: The Open Source CFD Toolbox
   \\    /   O peration     | Website:  https://openfoam.org
    \\  /    A nd           | Version:  13
     \\/     M anipulation  |
\*---------------------------------------------------------------------------*/
FoamFile
{
    format      ascii;
    class       volScalarField;
    location    "23";
    object      p;
}
// * * * * * * * * * * * * * * * * * * * * * * * * * * * * * * * * * * * * * //

dimensions      [0 2 -2 0 0 0 0];

internalField   nonuniform List<scalar> 
6440
(
0.000682867
0.000682879
0.000682909
0.000682954
0.000683014
0.000683083
0.000683157
0.000683228
0.00068329
0.000683334
0.00068335
0.000683334
0.00068328
0.000683187
0.000683054
0.000682886
0.000682688
0.000682469
0.000682234
0.000681993
0.000681746
0.00068149
0.000681228
0.000680958
0.000680714
0.000682788
0.000682801
0.000682832
0.000682882
0.000682948
0.000683027
0.000683116
0.000683209
0.000683296
0.000683371
0.000683425
0.00068345
0.000683439
0.000683386
0.000683287
0.000683142
0.000682952
0.000682716
0.000682437
0.000682114
0.000681748
0.000681341
0.000680898
0.000680445
0.000680032
0.000682658
0.000682677
0.000682716
0.000682777
0.000682857
0.000682954
0.000683065
0.000683183
0.000683301
0.000683411
0.000683501
0.000683561
0.000683587
0.000683574
0.000683513
0.000683394
0.00068321
0.000682957
0.000682627
0.000682222
0.00068175
0.00068121
0.000680621
0.000680042
0.000679544
0.000682478
0.000682504
0.000682552
0.000682625
0.000682722
0.000682839
0.000682973
0.000683116
0.000683261
0.000683397
0.000683518
0.00068362
0.000683691
0.000683716
0.000683684
0.000683583
0.000683402
0.000683125
0.000682749
0.000682282
0.000681725
0.000681081
0.000680393
0.000679727
0.000679167
0.000682241
0.000682272
0.00068233
0.000682416
0.000682528
0.000682663
0.000682818
0.000682986
0.000683156
0.000683326
0.000683485
0.000683625
0.000683731
0.000683789
0.000683785
0.000683704
0.000683527
0.00068324
0.000682839
0.000682326
0.000681702
0.000680985
0.000680224
0.000679483
0.000678866
0.000681942
0.000681979
0.000682046
0.000682143
0.00068227
0.000682422
0.000682597
0.000682789
0.000682989
0.000683191
0.000683382
0.000683554
0.000683693
0.000683784
0.00068381
0.000683755
0.000683598
0.00068332
0.000682913
0.000682369
0.000681701
0.000680937
0.000680114
0.000679303
0.000678629
0.000681582
0.000681624
0.000681698
0.000681807
0.000681948
0.00068212
0.000682314
0.000682527
0.000682753
0.00068298
0.000683201
0.000683403
0.000683573
0.000683696
0.000683757
0.000683736
0.00068361
0.00068336
0.000682964
0.000682413
0.000681729
0.000680929
0.000680048
0.000679171
0.000678441
0.000681162
0.000681209
0.000681291
0.000681411
0.000681567
0.000681754
0.000681967
0.000682199
0.000682446
0.000682701
0.000682948
0.000683176
0.000683373
0.000683527
0.000683622
0.000683639
0.000683553
0.00068334
0.000682982
0.000682457
0.000681771
0.000680943
0.00068001
0.000679069
0.000678285
0.000680685
0.000680736
0.000680825
0.000680956
0.000681126
0.00068133
0.000681561
0.000681813
0.000682084
0.000682359
0.000682626
0.000682876
0.000683098
0.00068328
0.000683408
0.000683463
0.000683427
0.000683271
0.000682966
0.000682485
0.000681811
0.000680963
0.000679986
0.000678986
0.000678153
0.000680154
0.000680209
0.000680305
0.000680446
0.000680629
0.000680848
0.000681097
0.00068137
0.000681659
0.000681953
0.000682238
0.000682509
0.000682756
0.000682967
0.000683127
0.000683222
0.000683239
0.000683141
0.000682896
0.000682474
0.000681832
0.000680978
0.000679969
0.000678921
0.000678046
0.000679573
0.000679631
0.000679733
0.000679883
0.000680077
0.000680311
0.000680577
0.000680869
0.000681176
0.000681487
0.000681791
0.000682085
0.000682358
0.000682598
0.000682791
0.000682925
0.000682985
0.000682949
0.000682764
0.000682391
0.000681801
0.000680987
0.000679967
0.000678883
0.000677978
0.000678948
0.000679009
0.000679116
0.000679272
0.000679475
0.00067972
0.000680001
0.00068031
0.00068063
0.000680958
0.000681287
0.00068161
0.000681913
0.000682183
0.00068241
0.00068258
0.000682679
0.000682703
0.000682578
0.000682266
0.00068173
0.000680964
0.000679985
0.000678891
0.000677975
0.000678285
0.000678348
0.000678457
0.000678618
0.000678827
0.00067908
0.000679371
0.000679693
0.000680023
0.000680369
0.000680725
0.000681078
0.000681413
0.000681718
0.000681981
0.000682189
0.000682332
0.000682402
0.000682333
0.00068208
0.000681625
0.000680939
0.00068002
0.000678985
0.000678086
0.000677592
0.000677656
0.000677766
0.000677926
0.000678137
0.000678392
0.000678681
0.000678996
0.000679343
0.00067971
0.000680092
0.000680473
0.000680842
0.000681185
0.000681491
0.000681745
0.000681934
0.000682047
0.000682031
0.000681848
0.000681516
0.000680959
0.000680152
0.000679199
0.000678338
0.000676879
0.000676942
0.000677049
0.000677205
0.000677406
0.000677649
0.000677934
0.000678251
0.0006786
0.000678977
0.000679372
0.000679776
0.000680177
0.000680561
0.000680916
0.000681226
0.000681472
0.00068164
0.000681684
0.000681642
0.000681468
0.000681092
0.000680434
0.000679576
0.000678763
0.000676158
0.000676219
0.00067632
0.000676465
0.000676654
0.000676883
0.00067715
0.000677455
0.000677793
0.000678163
0.000678558
0.000678971
0.000679393
0.000679814
0.00068022
0.000680596
0.000680925
0.000681191
0.000681363
0.000681487
0.000681514
0.000681344
0.000680873
0.000680148
0.000679405
0.000675439
0.000675497
0.00067559
0.000675721
0.00067589
0.000676096
0.000676338
0.000676615
0.000676926
0.00067727
0.000677644
0.000678045
0.000678467
0.000678905
0.00067935
0.000679793
0.000680221
0.000680628
0.000680981
0.000681318
0.000681574
0.00068166
0.000681452
0.000680938
0.000680324
0.000674737
0.00067479
0.000674872
0.000674984
0.000675128
0.000675303
0.000675508
0.000675743
0.00067601
0.000676307
0.000676635
0.000676995
0.000677386
0.000677808
0.000678263
0.000678749
0.000679264
0.000679812
0.000680363
0.000680941
0.000681486
0.000681919
0.000682092
0.000681977
0.000681796
0.000674062
0.00067411
0.000674179
0.000674271
0.000674385
0.000674521
0.000674681
0.000674863
0.00067507
0.000675302
0.000675562
0.000675851
0.000676175
0.000676538
0.000676947
0.00067741
0.000677931
0.000678508
0.000679273
0.000680101
0.000681012
0.000681951
0.000682767
0.000683593
0.00068507
0.000673425
0.000673468
0.000673526
0.000673596
0.000673679
0.000673777
0.000673889
0.000674017
0.000674161
0.000674323
0.000674507
0.000674716
0.000674957
0.000675238
0.000675571
0.000675969
0.000676454
0.000677057
0.00067794
0.00067891
0.00068016
0.000681683
0.000683405
0.000685621
0.000690035
0.000672836
0.000672881
0.000672935
0.000672996
0.000673065
0.000673144
0.000673232
0.000673329
0.000673436
0.000673554
0.000673687
0.000673839
0.000674014
0.000674221
0.000674469
0.000674771
0.000675144
0.000675606
0.000676178
0.000677043
0.000678047
0.000679284
0.000680916
0.000683258
0.000685917
0.000672277
0.000672325
0.000672382
0.000672444
0.000672513
0.00067259
0.000672676
0.00067277
0.000672874
0.000672989
0.000673117
0.000673262
0.00067343
0.000673627
0.000673861
0.000674145
0.000674493
0.000674923
0.000675461
0.000676159
0.000676996
0.000678011
0.000679288
0.000680895
0.000682485
0.000671751
0.000671802
0.000671862
0.000671928
0.000672
0.000672081
0.000672169
0.000672266
0.000672373
0.000672489
0.000672619
0.000672764
0.000672929
0.000673121
0.000673346
0.000673613
0.000673935
0.000674324
0.000674799
0.000675377
0.000676064
0.000676878
0.000677847
0.000678939
0.00067992
0.000671256
0.00067131
0.000671374
0.000671442
0.000671517
0.0006716
0.000671691
0.000671789
0.000671896
0.000672013
0.000672141
0.000672283
0.000672442
0.000672622
0.000672831
0.000673074
0.000673359
0.000673695
0.00067409
0.000674553
0.000675083
0.000675678
0.00067632
0.000676926
0.00067727
0.000670792
0.000670848
0.000670914
0.000670984
0.00067106
0.000671144
0.000671235
0.000671332
0.000671438
0.000671551
0.000671674
0.000671807
0.000671955
0.000672119
0.000672304
0.000672515
0.000672755
0.000673029
0.000673339
0.000673685
0.000674059
0.000674442
0.000674796
0.000675037
0.000675012
0.00067036
0.000670417
0.000670484
0.000670554
0.00067063
0.000670713
0.000670802
0.000670897
0.000670998
0.000671105
0.000671219
0.000671341
0.000671473
0.000671616
0.000671773
0.000671946
0.000672137
0.000672346
0.000672571
0.000672805
0.000673035
0.000673236
0.000673367
0.000673361
0.000673125
0.000669958
0.000670015
0.000670082
0.000670152
0.000670227
0.000670307
0.000670393
0.000670483
0.000670578
0.000670676
0.000670779
0.000670887
0.000671
0.000671119
0.000671246
0.00067138
0.000671521
0.000671666
0.00067181
0.000671943
0.000672049
0.000672104
0.000672071
0.000671901
0.000671538
0.000669586
0.000669643
0.000669709
0.000669777
0.00066985
0.000669927
0.000670008
0.000670092
0.000670179
0.000670267
0.000670357
0.000670449
0.000670542
0.000670636
0.000670731
0.000670825
0.000670917
0.000671002
0.000671074
0.00067112
0.000671125
0.000671068
0.000670917
0.00067064
0.0006702
0.000669244
0.0006693
0.000669365
0.00066943
0.000669499
0.000669572
0.000669647
0.000669724
0.000669802
0.000669879
0.000669956
0.00067003
0.000670102
0.00067017
0.000670234
0.000670291
0.000670338
0.000670369
0.000670377
0.000670351
0.000670276
0.000670134
0.000669901
0.000669553
0.000669067
0.00066893
0.000668985
0.000669048
0.000669111
0.000669176
0.000669243
0.000669312
0.000669381
0.000669448
0.000669514
0.000669576
0.000669633
0.000669684
0.000669728
0.000669762
0.000669784
0.00066979
0.000669774
0.000669728
0.000669644
0.000669506
0.000669302
0.000669012
0.000668619
0.000668108
0.000668645
0.000668699
0.000668759
0.000668818
0.000668878
0.00066894
0.000669002
0.000669062
0.000669119
0.000669173
0.00066922
0.00066926
0.000669291
0.000669311
0.000669318
0.000669309
0.000669279
0.000669222
0.000669133
0.000669001
0.000668817
0.000668567
0.000668238
0.000667818
0.000667295
0.000668388
0.00066844
0.000668496
0.000668552
0.000668607
0.000668663
0.000668717
0.000668768
0.000668815
0.000668856
0.00066889
0.000668913
0.000668925
0.000668924
0.000668906
0.000668869
0.000668808
0.000668718
0.000668593
0.000668425
0.000668204
0.000667922
0.000667568
0.000667133
0.000666607
0.000668158
0.000668207
0.00066826
0.000668312
0.000668362
0.000668411
0.000668458
0.000668501
0.000668537
0.000668567
0.000668586
0.000668594
0.000668589
0.000668568
0.000668528
0.000668467
0.00066838
0.000668262
0.000668108
0.000667912
0.000667666
0.000667362
0.000666992
0.00066655
0.000666028
0.000667954
0.000668001
0.000668051
0.000668098
0.000668143
0.000668186
0.000668225
0.000668259
0.000668286
0.000668303
0.00066831
0.000668304
0.000668283
0.000668244
0.000668185
0.000668103
0.000667995
0.000667855
0.000667679
0.000667462
0.000667197
0.000666879
0.000666501
0.000666057
0.000665544
0.000667776
0.00066782
0.000667866
0.000667909
0.000667949
0.000667986
0.000668017
0.000668043
0.00066806
0.000668067
0.000668062
0.000668043
0.000668008
0.000667954
0.000667878
0.000667779
0.000667653
0.000667495
0.000667303
0.00066707
0.000666793
0.000666466
0.000666084
0.000665644
0.000665142
0.000667623
0.000667664
0.000667707
0.000667745
0.00066778
0.00066781
0.000667835
0.000667853
0.000667861
0.000667858
0.000667842
0.000667812
0.000667764
0.000667696
0.000667607
0.000667494
0.000667354
0.000667182
0.000666977
0.000666734
0.000666449
0.000666118
0.000665737
0.000665303
0.000664814
0.000667494
0.000667532
0.000667572
0.000667606
0.000667635
0.00066766
0.000667678
0.000667688
0.000667688
0.000667676
0.000667651
0.00066761
0.000667551
0.000667472
0.000667372
0.000667247
0.000667095
0.000666914
0.0006667
0.00066645
0.00066616
0.000665829
0.000665452
0.000665027
0.000664551
0.000667388
0.000667424
0.00066746
0.00066749
0.000667515
0.000667534
0.000667545
0.000667548
0.000667541
0.000667521
0.000667487
0.000667436
0.000667368
0.00066728
0.000667171
0.000667037
0.000666877
0.000666688
0.000666468
0.000666214
0.000665923
0.000665594
0.000665223
0.000664808
0.000664348
0.000667304
0.000667338
0.00066737
0.000667397
0.000667417
0.000667431
0.000667437
0.000667433
0.000667419
0.000667391
0.00066735
0.000667292
0.000667216
0.00066712
0.000667003
0.000666862
0.000666696
0.000666502
0.000666279
0.000666023
0.000665734
0.000665408
0.000665045
0.000664642
0.000664198
0.000667242
0.000667273
0.000667303
0.000667325
0.000667341
0.00066735
0.000667351
0.000667342
0.000667321
0.000667287
0.000667239
0.000667174
0.000667092
0.00066699
0.000666867
0.000666721
0.000666551
0.000666354
0.000666129
0.000665875
0.000665588
0.000665269
0.000664914
0.000664524
0.000664096
0.000667201
0.00066723
0.000667256
0.000667275
0.000667287
0.000667292
0.000667287
0.000667273
0.000667247
0.000667207
0.000667153
0.000667083
0.000666996
0.000666889
0.000666762
0.000666612
0.00066644
0.000666242
0.000666017
0.000665765
0.000665483
0.000665171
0.000664826
0.000664448
0.000664037
0.00066718
0.000667206
0.00066723
0.000667246
0.000667254
0.000667254
0.000667246
0.000667226
0.000667195
0.000667151
0.000667092
0.000667018
0.000666926
0.000666815
0.000666685
0.000666534
0.00066636
0.000666162
0.00066594
0.000665691
0.000665415
0.00066511
0.000664777
0.000664413
0.000664018
0.000667177
0.000667202
0.000667223
0.000667236
0.000667241
0.000667237
0.000667224
0.000667201
0.000667165
0.000667117
0.000667054
0.000666976
0.000666881
0.000666768
0.000666636
0.000666484
0.00066631
0.000666114
0.000665894
0.00066565
0.000665381
0.000665085
0.000664762
0.000664412
0.000664034
0.000667192
0.000667215
0.000667234
0.000667244
0.000667246
0.000667239
0.000667222
0.000667195
0.000667156
0.000667104
0.000667038
0.000666957
0.00066686
0.000666745
0.000666612
0.00066646
0.000666287
0.000666094
0.000665878
0.00066564
0.000665378
0.000665091
0.000664781
0.000664445
0.000664083
0.000667225
0.000667246
0.000667262
0.00066727
0.000667269
0.000667259
0.000667239
0.000667209
0.000667167
0.000667112
0.000667043
0.00066696
0.000666861
0.000666746
0.000666613
0.000666461
0.000666291
0.0006661
0.000665889
0.000665657
0.000665403
0.000665127
0.000664828
0.000664506
0.000664162
0.000667273
0.000667293
0.000667307
0.000667312
0.000667308
0.000667296
0.000667274
0.00066724
0.000667196
0.000667139
0.000667068
0.000666983
0.000666883
0.000666768
0.000666635
0.000666486
0.000666318
0.000666131
0.000665926
0.0006657
0.000665455
0.000665188
0.000664902
0.000664594
0.000664266
0.000667337
0.000667355
0.000667367
0.00066737
0.000667364
0.000667349
0.000667324
0.000667289
0.000667242
0.000667183
0.000667111
0.000667025
0.000666925
0.00066681
0.000666679
0.000666531
0.000666367
0.000666185
0.000665985
0.000665766
0.00066553
0.000665274
0.000664999
0.000664706
0.000664394
0.000667415
0.000667431
0.000667441
0.000667442
0.000667435
0.000667418
0.000667391
0.000667353
0.000667305
0.000667244
0.000667171
0.000667085
0.000666985
0.000666871
0.000666741
0.000666596
0.000666436
0.000666259
0.000666065
0.000665854
0.000665626
0.000665381
0.000665119
0.000664839
0.000664543
0.000667506
0.000667521
0.000667529
0.000667529
0.000667519
0.0006675
0.000667472
0.000667433
0.000667383
0.000667321
0.000667247
0.000667161
0.000667062
0.000666949
0.000666822
0.00066668
0.000666523
0.000666351
0.000666164
0.000665961
0.000665742
0.000665507
0.000665257
0.000664992
0.000664711
0.00066761
0.000667623
0.00066763
0.000667628
0.000667616
0.000667596
0.000667566
0.000667526
0.000667475
0.000667412
0.000667339
0.000667253
0.000667154
0.000667043
0.000666918
0.00066678
0.000666628
0.000666461
0.00066628
0.000666085
0.000665875
0.000665651
0.000665413
0.000665161
0.000664895
0.000667724
0.000667736
0.000667742
0.000667738
0.000667726
0.000667704
0.000667673
0.000667631
0.000667579
0.000667517
0.000667443
0.000667358
0.000667261
0.000667152
0.00066703
0.000666895
0.000666748
0.000666587
0.000666413
0.000666225
0.000666025
0.000665811
0.000665584
0.000665345
0.000665094
0.00066785
0.00066786
0.000667865
0.00066786
0.000667846
0.000667823
0.000667791
0.000667749
0.000667696
0.000667634
0.00066756
0.000667476
0.000667381
0.000667274
0.000667155
0.000667024
0.000666881
0.000666726
0.000666559
0.000666379
0.000666188
0.000665984
0.000665769
0.000665543
0.000665306
0.000667985
0.000667994
0.000667997
0.000667991
0.000667977
0.000667953
0.00066792
0.000667877
0.000667824
0.000667762
0.000667689
0.000667606
0.000667512
0.000667408
0.000667292
0.000667165
0.000667027
0.000666878
0.000666718
0.000666546
0.000666363
0.00066617
0.000665966
0.000665752
0.000665529
0.000668129
0.000668137
0.000668139
0.000668132
0.000668116
0.000668092
0.000668058
0.000668015
0.000667962
0.0006679
0.000667828
0.000667747
0.000667655
0.000667553
0.000667441
0.000667318
0.000667185
0.000667042
0.000666888
0.000666724
0.00066655
0.000666366
0.000666173
0.000665971
0.000665761
0.00066828
0.000668288
0.000668289
0.000668281
0.000668264
0.000668239
0.000668205
0.000668162
0.00066811
0.000668048
0.000667977
0.000667897
0.000667807
0.000667708
0.000667599
0.000667481
0.000667353
0.000667215
0.000667068
0.000666911
0.000666746
0.000666571
0.000666389
0.000666198
0.000666001
0.000668439
0.000668446
0.000668446
0.000668437
0.00066842
0.000668394
0.00066836
0.000668317
0.000668265
0.000668204
0.000668134
0.000668056
0.000667968
0.000667872
0.000667767
0.000667652
0.000667529
0.000667397
0.000667257
0.000667107
0.00066695
0.000666785
0.000666612
0.000666433
0.000666247
0.000668604
0.00066861
0.000668609
0.0006686
0.000668583
0.000668557
0.000668522
0.000668479
0.000668428
0.000668368
0.000668299
0.000668222
0.000668137
0.000668044
0.000667942
0.000667832
0.000667714
0.000667587
0.000667453
0.000667311
0.000667162
0.000667005
0.000666842
0.000666674
0.000666499
0.000668775
0.00066878
0.000668779
0.000668769
0.000668751
0.000668725
0.000668691
0.000668648
0.000668597
0.000668538
0.000668471
0.000668396
0.000668313
0.000668223
0.000668124
0.000668018
0.000667905
0.000667784
0.000667656
0.000667521
0.000667379
0.000667232
0.000667078
0.000666919
0.000666756
0.00066895
0.000668955
0.000668953
0.000668943
0.000668925
0.000668899
0.000668865
0.000668822
0.000668772
0.000668714
0.000668648
0.000668575
0.000668495
0.000668408
0.000668313
0.000668211
0.000668102
0.000667987
0.000667865
0.000667737
0.000667602
0.000667463
0.000667318
0.000667168
0.000667015
0.00066913
0.000669134
0.000669132
0.000669122
0.000669104
0.000669077
0.000669043
0.000669002
0.000668952
0.000668895
0.000668831
0.00066876
0.000668682
0.000668598
0.000668506
0.000668409
0.000668305
0.000668194
0.000668078
0.000667956
0.000667829
0.000667697
0.000667561
0.000667421
0.000667277
0.000669313
0.000669317
0.000669315
0.000669304
0.000669286
0.00066926
0.000669226
0.000669185
0.000669137
0.000669081
0.000669019
0.00066895
0.000668874
0.000668792
0.000668705
0.000668611
0.000668511
0.000668406
0.000668295
0.00066818
0.00066806
0.000667935
0.000667807
0.000667675
0.000667541
0.000669499
0.000669503
0.0006695
0.00066949
0.000669472
0.000669446
0.000669413
0.000669372
0.000669325
0.000669271
0.00066921
0.000669143
0.00066907
0.000668991
0.000668906
0.000668816
0.000668721
0.000668621
0.000668516
0.000668406
0.000668293
0.000668175
0.000668054
0.000667931
0.000667805
0.000669688
0.000669691
0.000669689
0.000669678
0.00066966
0.000669635
0.000669602
0.000669563
0.000669516
0.000669463
0.000669404
0.000669339
0.000669269
0.000669193
0.000669111
0.000669025
0.000668934
0.000668839
0.000668739
0.000668635
0.000668527
0.000668417
0.000668303
0.000668187
0.000668069
0.000669878
0.000669881
0.000669879
0.000669869
0.000669851
0.000669826
0.000669794
0.000669755
0.00066971
0.000669659
0.000669601
0.000669538
0.00066947
0.000669397
0.000669319
0.000669236
0.000669149
0.000669058
0.000668963
0.000668865
0.000668763
0.000668659
0.000668552
0.000668443
0.000668333
0.000670069
0.000670073
0.00067007
0.000670061
0.000670043
0.000670019
0.000669988
0.00066995
0.000669906
0.000669856
0.0006698
0.000669739
0.000669673
0.000669603
0.000669528
0.000669449
0.000669366
0.000669279
0.000669189
0.000669096
0.000669
0.000668901
0.000668801
0.000668699
0.000668596
0.000670261
0.000670265
0.000670263
0.000670254
0.000670237
0.000670214
0.000670183
0.000670146
0.000670104
0.000670055
0.000670001
0.000669942
0.000669878
0.00066981
0.000669739
0.000669663
0.000669584
0.000669501
0.000669415
0.000669327
0.000669236
0.000669143
0.000669049
0.000668954
0.000668857
0.000670453
0.000670457
0.000670456
0.000670447
0.000670432
0.000670409
0.00067038
0.000670344
0.000670302
0.000670255
0.000670203
0.000670146
0.000670084
0.000670019
0.00066995
0.000669877
0.000669802
0.000669723
0.000669642
0.000669558
0.000669472
0.000669385
0.000669296
0.000669207
0.000669117
0.000670645
0.00067065
0.000670649
0.000670641
0.000670626
0.000670605
0.000670576
0.000670542
0.000670501
0.000670456
0.000670405
0.00067035
0.000670291
0.000670228
0.000670162
0.000670092
0.00067002
0.000669945
0.000669868
0.000669788
0.000669707
0.000669625
0.000669541
0.000669457
0.000669373
0.000670836
0.000670842
0.000670842
0.000670835
0.000670821
0.000670801
0.000670774
0.00067074
0.000670701
0.000670657
0.000670608
0.000670555
0.000670498
0.000670437
0.000670374
0.000670307
0.000670238
0.000670166
0.000670093
0.000670017
0.000669941
0.000669863
0.000669785
0.000669706
0.000669627
0.000671027
0.000671033
0.000671035
0.000671029
0.000671016
0.000670997
0.000670971
0.000670939
0.000670901
0.000670858
0.000670811
0.00067076
0.000670704
0.000670646
0.000670585
0.000670521
0.000670455
0.000670387
0.000670317
0.000670245
0.000670173
0.000670099
0.000670025
0.000669951
0.000669878
0.000671215
0.000671223
0.000671226
0.000671222
0.000671211
0.000671192
0.000671168
0.000671137
0.000671101
0.000671059
0.000671014
0.000670964
0.000670911
0.000670855
0.000670796
0.000670734
0.000670671
0.000670606
0.000670539
0.000670471
0.000670402
0.000670333
0.000670263
0.000670194
0.000670125
0.000671403
0.000671412
0.000671417
0.000671414
0.000671404
0.000671388
0.000671364
0.000671335
0.0006713
0.00067126
0.000671216
0.000671168
0.000671116
0.000671062
0.000671005
0.000670946
0.000670885
0.000670823
0.000670759
0.000670694
0.000670629
0.000670564
0.000670498
0.000670433
0.000670368
0.000671588
0.0006716
0.000671606
0.000671605
0.000671597
0.000671582
0.00067156
0.000671532
0.000671499
0.00067146
0.000671418
0.000671371
0.000671321
0.000671269
0.000671214
0.000671157
0.000671098
0.000671038
0.000670977
0.000670915
0.000670853
0.000670791
0.000670729
0.000670668
0.000670608
0.000671772
0.000671785
0.000671794
0.000671796
0.000671789
0.000671776
0.000671756
0.000671729
0.000671697
0.00067166
0.000671619
0.000671573
0.000671525
0.000671474
0.000671421
0.000671365
0.000671309
0.000671251
0.000671193
0.000671134
0.000671074
0.000671015
0.000670957
0.000670899
0.000670842
0.000671953
0.000671969
0.000671981
0.000671985
0.000671981
0.000671969
0.000671951
0.000671926
0.000671895
0.000671859
0.000671819
0.000671775
0.000671727
0.000671678
0.000671626
0.000671572
0.000671517
0.000671461
0.000671405
0.000671348
0.000671292
0.000671236
0.00067118
0.000671126
0.000671072
0.000672132
0.000672152
0.000672167
0.000672173
0.000672171
0.000672162
0.000672145
0.000672122
0.000672092
0.000672057
0.000672018
0.000671975
0.000671929
0.00067188
0.000671829
0.000671777
0.000671723
0.000671669
0.000671614
0.00067156
0.000671505
0.000671452
0.000671399
0.000671347
0.000671297
0.000672309
0.000672332
0.000672351
0.000672361
0.000672361
0.000672354
0.000672339
0.000672317
0.000672289
0.000672255
0.000672217
0.000672174
0.000672129
0.00067208
0.00067203
0.000671979
0.000671926
0.000671873
0.00067182
0.000671767
0.000671715
0.000671663
0.000671613
0.000671564
0.000671517
0.000672484
0.000672511
0.000672535
0.000672548
0.000672551
0.000672547
0.000672534
0.000672513
0.000672486
0.000672453
0.000672415
0.000672372
0.000672327
0.000672279
0.000672229
0.000672178
0.000672127
0.000672074
0.000672022
0.000671971
0.00067192
0.00067187
0.000671822
0.000671775
0.000671731
0.000672657
0.000672689
0.000672718
0.000672735
0.000672742
0.00067274
0.000672728
0.000672709
0.000672683
0.00067265
0.000672612
0.00067257
0.000672524
0.000672476
0.000672426
0.000672375
0.000672323
0.000672272
0.00067222
0.000672169
0.00067212
0.000672072
0.000672025
0.000671981
0.000671939
0.000672829
0.000672867
0.000672901
0.000672922
0.000672933
0.000672934
0.000672924
0.000672906
0.00067288
0.000672847
0.000672809
0.000672766
0.00067272
0.000672671
0.00067262
0.000672569
0.000672517
0.000672465
0.000672414
0.000672363
0.000672315
0.000672268
0.000672223
0.00067218
0.00067214
0.000672999
0.000673044
0.000673085
0.000673112
0.000673126
0.000673129
0.000673122
0.000673105
0.000673079
0.000673045
0.000673006
0.000672962
0.000672914
0.000672864
0.000672812
0.000672759
0.000672706
0.000672654
0.000672602
0.000672552
0.000672504
0.000672457
0.000672413
0.000672372
0.000672334
0.000673169
0.000673222
0.000673271
0.000673303
0.000673322
0.000673328
0.000673322
0.000673305
0.000673279
0.000673244
0.000673203
0.000673157
0.000673107
0.000673055
0.000673001
0.000672946
0.000672892
0.000672838
0.000672785
0.000672735
0.000672686
0.00067264
0.000672597
0.000672558
0.000672521
0.00067334
0.000673402
0.00067346
0.000673499
0.000673523
0.000673531
0.000673527
0.000673509
0.000673481
0.000673445
0.000673401
0.000673352
0.000673299
0.000673243
0.000673186
0.000673129
0.000673072
0.000673017
0.000672963
0.000672911
0.000672862
0.000672816
0.000672774
0.000672735
0.0006727
0.000673512
0.000673586
0.000673654
0.000673701
0.000673729
0.00067374
0.000673736
0.000673718
0.000673687
0.000673647
0.0006736
0.000673546
0.000673489
0.000673429
0.000673369
0.000673308
0.000673248
0.00067319
0.000673134
0.000673081
0.000673031
0.000672984
0.000672942
0.000672904
0.00067287
0.000673688
0.000673775
0.000673856
0.000673911
0.000673944
0.000673957
0.000673953
0.000673932
0.000673898
0.000673853
0.0006738
0.000673741
0.000673678
0.000673613
0.000673547
0.000673482
0.000673418
0.000673356
0.000673298
0.000673242
0.000673191
0.000673144
0.000673102
0.000673064
0.000673031
0.000673869
0.000673973
0.000674068
0.000674133
0.00067417
0.000674185
0.000674178
0.000674153
0.000674113
0.000674061
0.000674001
0.000673935
0.000673864
0.000673793
0.000673721
0.00067365
0.000673581
0.000673516
0.000673454
0.000673396
0.000673343
0.000673294
0.000673251
0.000673214
0.000673182
0.00067406
0.000674183
0.000674295
0.00067437
0.000674411
0.000674425
0.000674415
0.000674383
0.000674335
0.000674274
0.000674204
0.000674128
0.000674049
0.000673969
0.000673889
0.000673812
0.000673737
0.000673667
0.000673601
0.00067354
0.000673484
0.000673434
0.000673391
0.000673353
0.000673322
0.000674263
0.00067441
0.000674543
0.000674627
0.000674672
0.000674683
0.000674665
0.000674624
0.000674564
0.00067449
0.000674408
0.00067432
0.00067423
0.00067414
0.000674051
0.000673966
0.000673885
0.000673809
0.000673738
0.000673673
0.000673615
0.000673563
0.000673519
0.000673481
0.00067345
0.000674485
0.000674662
0.000674818
0.000674913
0.000674958
0.000674963
0.000674933
0.000674877
0.000674801
0.000674711
0.000674613
0.000674511
0.000674407
0.000674305
0.000674206
0.000674112
0.000674023
0.00067394
0.000673864
0.000673796
0.000673734
0.00067368
0.000673634
0.000673596
0.000673565
0.000674735
0.000674948
0.000675132
0.000675236
0.000675277
0.000675269
0.000675221
0.000675144
0.000675046
0.000674936
0.000674818
0.000674698
0.000674578
0.000674462
0.000674351
0.000674247
0.00067415
0.00067406
0.000673979
0.000673905
0.000673841
0.000673784
0.000673737
0.000673698
0.000673667
0.000675025
0.000675284
0.000675498
0.000675608
0.000675637
0.000675607
0.000675532
0.000675426
0.0006753
0.000675163
0.000675021
0.000674879
0.000674741
0.000674609
0.000674485
0.00067437
0.000674263
0.000674167
0.000674079
0.000674001
0.000673933
0.000673874
0.000673825
0.000673785
0.000673755
0.000675378
0.000675693
0.000675939
0.000676045
0.000676049
0.000675983
0.000675869
0.000675723
0.00067556
0.000675389
0.000675218
0.000675052
0.000674893
0.000674744
0.000674606
0.000674479
0.000674363
0.000674258
0.000674165
0.000674082
0.000674011
0.000673949
0.000673899
0.000673858
0.000673828
0.000675829
0.000676207
0.000676482
0.000676567
0.000676525
0.000676403
0.000676232
0.000676033
0.000675822
0.000675611
0.000675406
0.000675212
0.00067503
0.000674863
0.00067471
0.00067457
0.000674445
0.000674333
0.000674234
0.000674147
0.000674072
0.000674008
0.000673956
0.000673915
0.000673885
0.000676438
0.000676882
0.00067717
0.000677201
0.000677077
0.000676869
0.000676618
0.000676349
0.00067608
0.000675821
0.000675578
0.000675354
0.000675148
0.000674962
0.000674794
0.000674643
0.000674509
0.00067439
0.000674285
0.000674194
0.000674116
0.000674051
0.000673997
0.000673955
0.000673925
0.000677323
0.000677805
0.000678058
0.000677973
0.000677713
0.000677378
0.000677018
0.000676662
0.000676323
0.000676011
0.000675727
0.00067547
0.000675241
0.000675037
0.000674855
0.000674694
0.000674552
0.000674427
0.000674318
0.000674223
0.000674143
0.000674076
0.000674021
0.000673979
0.000673949
0.000678689
0.000679108
0.000679219
0.000678912
0.000678433
0.000677917
0.000677416
0.000676953
0.000676536
0.000676167
0.000675841
0.000675555
0.000675304
0.000675083
0.00067489
0.00067472
0.000674572
0.000674442
0.00067433
0.000674233
0.000674151
0.000674083
0.000674028
0.000673985
0.000673955
0.000680889
0.000680987
0.000680727
0.000680022
0.000679212
0.00067845
0.000677777
0.000677196
0.000676698
0.000676273
0.00067591
0.000675598
0.000675329
0.000675097
0.000674895
0.00067472
0.000674568
0.000674436
0.000674322
0.000674224
0.000674141
0.000674072
0.000674017
0.000673975
0.000673945
0.000684849
0.000683856
0.000682635
0.000681238
0.000679964
0.000678904
0.000678043
0.000677344
0.000676775
0.000676307
0.000675917
0.000675589
0.00067531
0.000675072
0.000674867
0.00067469
0.000674537
0.000674405
0.000674291
0.000674193
0.000674111
0.000674043
0.000673988
0.000673946
0.000673916
0.000693767
0.000688631
0.00068488
0.000682349
0.000680504
0.000679133
0.000678111
0.000677333
0.000676725
0.000676239
0.000675843
0.000675513
0.000675237
0.000675001
0.0006748
0.000674626