/*--------------------------------*- C++ -*----------------------------------*\
  =========                 |
  \\      /  F ield         | OpenFOAM: The Open Source CFD Toolbox
   \\    /   O peration     | Website:  https://openfoam.org
    \\  /    A nd           | Version:  13
     \\/     M anipulation  |
\*---------------------------------------------------------------------------*/
FoamFile
{
    format      ascii;
    class       volScalarField;
    location    "23";
    object      p;
}
// * * * * * * * * * * * * * * * * * * * * * * * * * * * * * * * * * * * * * //

dimensions      [0 2 -2 0 0 0 0];

internalField   nonuniform List<scalar> 
6440
(
136.208
136.215
136.222
136.218
136.186
136.124
136.027
135.897
135.741
135.575
135.411
135.266
135.153
135.086
135.071
135.11
135.199
135.329
135.482
135.639
135.774
135.864
135.903
135.915
135.919
136.201
136.205
136.203
136.179
136.127
136.042
135.924
135.775
135.601
135.416
135.237
135.082
134.97
134.914
134.92
134.989
135.108
135.264
135.438
135.612
135.763
135.873
135.928
135.942
135.943
136.188
136.186
136.164
136.116
136.04
135.933
135.79
135.615
135.416
135.21
135.016
134.854
134.739
134.684
134.695
134.773
134.909
135.084
135.278
135.472
135.649
135.795
135.895
135.949
135.961
136.165
136.151
136.109
136.042
135.942
135.802
135.617
135.392
135.142
134.895
134.677
134.511
134.406
134.367
134.393
134.483
134.632
134.832
135.062
135.296
135.515
135.705
135.851
135.945
135.981
136.138
136.114
136.061
135.976
135.848
135.667
135.427
135.14
134.831
134.537
134.301
134.14
134.051
134.034
134.089
134.207
134.384
134.617
134.889
135.17
135.433
135.663
135.846
135.974
136.03
136.141
136.111
136.05
135.947
135.791
135.571
135.286
134.952
134.605
134.3
134.08
133.944
133.874
133.866
133.919
134.048
134.253
134.52
134.826
135.139
135.435
135.695
135.901
136.043
136.098
136.19
136.158
136.087
135.966
135.785
135.534
135.219
134.862
134.511
134.225
134.029
133.908
133.849
133.853
133.916
134.057
134.276
134.559
134.88
135.209
135.523
135.799
136.006
136.116
136.142
136.274
136.239
136.157
136.022
135.822
135.552
135.22
134.855
134.511
134.244
134.071
133.971
133.929
133.949
134.035
134.199
134.433
134.721
135.04
135.365
135.674
135.937
136.105
136.159
136.153
136.349
136.312
136.223
136.078
135.87
135.598
135.272
134.922
134.596
134.349
134.197
134.123
134.108
134.153
134.263
134.442
134.679
134.958
135.257
135.555
135.833
136.051
136.15
136.156
136.144
136.377
136.333
136.237
136.089
135.885
135.628
135.33
135.017
134.732
134.515
134.388
134.341
134.356
134.426
134.553
134.738
134.968
135.224
135.488
135.738
135.952
136.091
136.135
136.128
136.124
136.341
136.286
136.177
136.024
135.829
135.598
135.343
135.086
134.858
134.693
134.605
134.591
134.635
134.728
134.869
135.054
135.27
135.495
135.705
135.878
135.996
136.06
136.089
136.106
136.114
136.228
136.163
136.04
135.879
135.689
135.484
135.276
135.082
134.92
134.82
134.799
134.835
134.909
135.022
135.174
135.358
135.555
135.74
135.882
135.961
135.989
136.017
136.063
136.102
136.118
136.048
135.968
135.836
135.667
135.48
135.295
135.13
135
134.917
134.89
134.927
135.013
135.129
135.269
135.433
135.614
135.793
135.933
136.007
136.016
136.002
136.012
136.062
136.107
136.131
135.83
135.736
135.595
135.42
135.237
135.072
134.945
134.869
134.85
134.893
134.992
135.132
135.299
135.469
135.629
135.795
135.958
136.072
136.108
136.092
136.06
136.05
136.081
136.118
136.146
135.615
135.513
135.372
135.198
135.024
134.88
134.788
134.757
134.786
134.872
135.005
135.177
135.37
135.565
135.744
135.9
136.026
136.111
136.141
136.127
136.105
136.093
136.105
136.135
136.168
135.456
135.36
135.212
135.043
134.883
134.759
134.694
134.691
134.746
134.853
135.001
135.182
135.382
135.583
135.764
135.912
136.021
136.092
136.123
136.112
136.103
136.108
136.121
136.161
136.2
135.378
135.287
135.132
134.97
134.825
134.714
134.66
134.661
134.719
134.835
134.999
135.188
135.389
135.584
135.759
135.904
136.006
136.068
136.091
136.096
136.1
136.117
136.144
136.19
136.23
135.384
135.288
135.127
134.968
134.828
134.726
134.67
134.673
134.729
134.855
135.029
135.228
135.424
135.604
135.764
135.892
135.988
136.042
136.071
136.082
136.099
136.127
136.161
136.203
136.238
135.444
135.362
135.2
135.04
134.911
134.816
134.767
134.765
134.821
134.943
135.115
135.304
135.485
135.64
135.768
135.876
135.954
136.005
136.029
136.047
136.067
136.1
136.135
136.179
136.199
135.489
135.45
135.318
135.174
135.06
134.984
134.946
134.949
135.001
135.108
135.251
135.407
135.551
135.671
135.767
135.844
135.903
135.941
135.96
135.971
135.984
136.004
136.035
136.07
136.031
135.491
135.487
135.424
135.337
135.267
135.222
135.205
135.216
135.261
135.333
135.422
135.511
135.594
135.665
135.723
135.77
135.806
135.829
135.84
135.844
135.845
135.842
135.816
135.731
135.293
135.479
135.479
135.473
135.466
135.466
135.475
135.489
135.516
135.548
135.575
135.593
135.61
135.623
135.64
135.659
135.676
135.692
135.7
135.701
135.698
135.684
135.651
135.575
135.398
135.021
135.47
135.465
135.473
135.516
135.585
135.653
135.703
135.74
135.749
135.729
135.692
135.65
135.618
135.596
135.586
135.584
135.583
135.578
135.567
135.551
135.522
135.467
135.364
135.182
134.909
135.468
135.457
135.467
135.525
135.614
135.701
135.751
135.765
135.749
135.713
135.666
135.622
135.577
135.542
135.519
135.506
135.496
135.481
135.461
135.433
135.392
135.324
135.216
135.058
134.851
135.469
135.446
135.443
135.488
135.563
135.631
135.669
135.666
135.644
135.612
135.58
135.551
135.526
135.5
135.477
135.463
135.451
135.433
135.407
135.369
135.314
135.237
135.131
134.991
134.826
135.445
135.407
135.373
135.375
135.408
135.451
135.48
135.478
135.464
135.452
135.445
135.445
135.443
135.439
135.431
135.424
135.416
135.403
135.378
135.338
135.279
135.198
135.094
134.969
134.824
135.372
135.323
135.271
135.243
135.25
135.267
135.274
135.268
135.263
135.273
135.294
135.316
135.336
135.351
135.361
135.366
135.367
135.361
135.343
135.309
135.255
135.18
135.083
134.965
134.833
135.248
135.197
135.143
135.109
135.098
135.089
135.07
135.057
135.063
135.091
135.13
135.176
135.218
135.25
135.278
135.296
135.308
135.309
135.296
135.269
135.224
135.158
135.071
134.963
134.838
135.086
135.039
134.994
134.961
134.935
134.896
134.856
134.838
134.851
134.893
134.952
135.018
135.083
135.138
135.185
135.22
135.244
135.252
135.246
135.223
135.185
135.127
135.048
134.946
134.828
134.906
134.864
134.825
134.789
134.739
134.672
134.619
134.6
134.62
134.675
134.75
134.837
134.928
135.012
135.081
135.136
135.174
135.194
135.194
135.178
135.144
135.091
135.013
134.915
134.802
134.722
134.68
134.639
134.589
134.509
134.419
134.36
134.343
134.372
134.441
134.53
134.637
134.758
134.873
134.969
135.045
135.099
135.13
135.139
135.129
135.1
135.049
134.977
134.889
134.797
134.546
134.499
134.446
134.37
134.262
134.152
134.091
134.079
134.123
134.206
134.309
134.436
134.586
134.733
134.855
134.95
135.018
135.06
135.078
135.074
135.052
135.011
134.959
134.895
134.812
134.394
134.336
134.264
134.164
134.022
133.893
133.84
133.837
133.898
133.997
134.112
134.254
134.428
134.598
134.743
134.856
134.935
134.985
135.01
135.013
135.001
134.977
134.939
134.881
134.8
134.291
134.216
134.121
133.994
133.829
133.685
133.647
133.654
133.727
133.842
133.966
134.112
134.293
134.477
134.638
134.763
134.851
134.906
134.936
134.945
134.939
134.919
134.878
134.812
134.71
134.25
134.155
134.039
133.899
133.714
133.569
133.545
133.559
133.634
133.754
133.881
134.02
134.19
134.376
134.542
134.673
134.765
134.823
134.854
134.864
134.855
134.827
134.777
134.696
134.58
134.275
134.165
134.037
133.888
133.708
133.572
133.537
133.557
133.625
133.738
133.86
133.978
134.127
134.302
134.463
134.591
134.681
134.737
134.764
134.769
134.754
134.718
134.657
134.567
134.44
134.355
134.241
134.109
133.973
133.804
133.688
133.625
133.643
133.691
133.785
133.891
133.987
134.109
134.26
134.404
134.52
134.601
134.65
134.671
134.669
134.646
134.601
134.531
134.431
134.299
134.474
134.369
134.245
134.127
133.978
133.871
133.804
133.789
133.805
133.882
133.969
134.036
134.13
134.249
134.367
134.465
134.53
134.567
134.579
134.568
134.537
134.483
134.404
134.297
134.157
134.61
134.523
134.413
134.322
134.189
134.069
133.993
133.953
133.963
134.026
134.08
134.12
134.181
134.264
134.352
134.425
134.471
134.493
134.493
134.472
134.431
134.368
134.281
134.165
134.02
134.737
134.674
134.584
134.509
134.404
134.282
134.204
134.171
134.18
134.208
134.218
134.224
134.253
134.298
134.356
134.401
134.424
134.428
134.415
134.383
134.332
134.26
134.164
134.043
133.89
134.836
134.794
134.726
134.671
134.603
134.522
134.473
134.447
134.423
134.394
134.357
134.336
134.332
134.346
134.376
134.388
134.388
134.375
134.348
134.304
134.242
134.161
134.057
133.927
133.772
134.901
134.877
134.835
134.809
134.787
134.762
134.747
134.711
134.638
134.556
134.49
134.447
134.413
134.402
134.399
134.383
134.361
134.332
134.291
134.235
134.163
134.072
133.96
133.826
133.664
134.948
134.936
134.928
134.944
134.97
134.991
134.992
134.92
134.805
134.695
134.612
134.55
134.488
134.451
134.417
134.382
134.344
134.299
134.244
134.176
134.094
133.995
133.877
133.735
133.571
134.99
134.989
135.018
135.081
135.146
135.187
135.17
135.061
134.931
134.814
134.717
134.631
134.545
134.49
134.438
134.386
134.332
134.273
134.206
134.128
134.036
133.929
133.803
133.659
133.489
135.031
135.041
135.101
135.194
135.276
135.321
135.274
135.151
135.022
134.902
134.791
134.687
134.596
134.525
134.457
134.391
134.325
134.254
134.175
134.087
133.988
133.873
133.743
133.592
133.422
135.07
135.084
135.151
135.245
135.312
135.358
135.304
135.193
135.071
134.951
134.839
134.725
134.635
134.55
134.472
134.396
134.32
134.239
134.151
134.055
133.948
133.828
133.692
133.54
133.366
135.109
135.115
135.155
135.21
135.249
135.285
135.259
135.182
135.076
134.965
134.856
134.751
134.658
134.568
134.484
134.401
134.316
134.227
134.132
134.029
133.916
133.791
133.653
133.496
133.323
135.152
135.14
135.131
135.129
135.15
135.167
135.175
135.133
135.05
134.958
134.859
134.763
134.67
134.58
134.492
134.404
134.314
134.219
134.118
134.01
133.892
133.763
133.621
133.465
133.29
135.196
135.169
135.111
135.056
135.053
135.064
135.095
135.077
135.017
134.94
134.855
134.769
134.68
134.59
134.499
134.407
134.312
134.213
134.108
133.995
133.874
133.742
133.599
133.441
133.269
135.241
135.206
135.123
135.027
134.991
135.004
135.044
135.035
134.992
134.927
134.853
134.772
134.687
134.597
134.505
134.41
134.312
134.21
134.101
133.986
133.862
133.729
133.583
133.427
133.255
135.29
135.26
135.171
135.054
134.987
134.995
135.025
135.015
134.981
134.926
134.856
134.779
134.694
134.604
134.511
134.414
134.314
134.209
134.098
133.98
133.855
133.721
133.577
133.419
133.251
135.35
135.331
135.254
135.134
135.061
135.049
135.045
135.03
134.991
134.934
134.866
134.787
134.702
134.612
134.518
134.419
134.317
134.21
134.098
133.979
133.853
133.718
133.574
133.42
133.253
135.421
135.413
135.358
135.258
135.196
135.155
135.104
135.071
135.02
134.954
134.88
134.8
134.713
134.621
134.525
134.426
134.322
134.214
134.1
133.981
133.855
133.721
133.579
133.425
133.263
135.497
135.496
135.465
135.394
135.353
135.275
135.187
135.126
135.055
134.98
134.9
134.814
134.725
134.632
134.534
134.434
134.329
134.22
134.106
133.986
133.861
133.728
133.586
133.438
133.277
135.564
135.571
135.563
135.529
135.497
135.38
135.271
135.182
135.094
135.008
134.921
134.832
134.739
134.643
134.545
134.443
134.337
134.228
134.114
133.995
133.87
133.738
133.6
133.452
133.298
135.621
135.632
135.644
135.653
135.608
135.458
135.34
135.231
135.131
135.036
134.943
134.849
134.753
134.656
134.556
134.453
134.347
134.238
134.124
134.005
133.882
133.752
133.616
133.473
133.322
135.665
135.679
135.699
135.743
135.676
135.507
135.386
135.269
135.162
135.061
134.963
134.866
134.768
134.669
134.568
134.464
134.358
134.249
134.136
134.018
133.896
133.769
133.636
133.496
133.35
135.699
135.713
135.733
135.774
135.693
135.531
135.409
135.294
135.185
135.081
134.981
134.88
134.781
134.681
134.58
134.476
134.37
134.261
134.149
134.033
133.913
133.788
133.658
133.523
133.38
135.724
135.736
135.761
135.771
135.678
135.545
135.424
135.31
135.202
135.097
134.994
134.894
134.794
134.693
134.592
134.488
134.383
134.275
134.164
134.05
133.932
133.81
133.683
133.55
133.414
135.74
135.748
135.781
135.769
135.663
135.551
135.433
135.32
135.212
135.108
135.006
134.905
134.805
134.705
134.603
134.501
134.396
134.289
134.18
134.068
133.952
133.833
133.709
133.582
133.449
135.748
135.752
135.781
135.765
135.645
135.539
135.432
135.323
135.218
135.115
135.014
134.915
134.815
134.715
134.615
134.513
134.41
134.304
134.197
134.087
133.973
133.857
133.737
133.613
133.486
135.75
135.754
135.768
135.737
135.624
135.526
135.425
135.322
135.22
135.12
135.021
134.922
134.823
134.725
134.625
134.525
134.423
134.32
134.214
134.106
133.996
133.882
133.765
133.647
133.523
135.748
135.754
135.757
135.707
135.609
135.514
135.417
135.318
135.22
135.122
135.025
134.928
134.831
134.734
134.636
134.537
134.437
134.335
134.232
134.126
134.018
133.908
133.796
133.679
133.561
135.743
135.754
135.754
135.684
135.599
135.504
135.408
135.313
135.218
135.122
135.027
134.932
134.837
134.741
134.645
134.548
134.45
134.35
134.249
134.146
134.041
133.935
133.825
133.714
133.599
135.734
135.749
135.751
135.659
135.578
135.49
135.398
135.306
135.214
135.121
135.028
134.935
134.842
134.748
134.654
134.559
134.463
134.365
134.267
134.166
134.065
133.961
133.856
133.747
133.638
135.725
135.736
135.731
135.633
135.557
135.473
135.386
135.298
135.208
135.118
135.028
134.937
134.846
134.755
134.662
134.569
134.475
134.38
134.284
134.187
134.088
133.987
133.885
133.782
133.676
135.715
135.725
135.702
135.611
135.535
135.456
135.373
135.289
135.202
135.115
135.027
134.938
134.849
134.76
134.67
134.579
134.487
134.395
134.301
134.206
134.11
134.013
133.915
133.814
133.714
135.705
135.718
135.673
135.598
135.52
135.441
135.361
135.279
135.195
135.11
135.025
134.938
134.852
134.765
134.677
134.588
134.499
134.409
134.318
134.226
134.133
134.039
133.944
133.848
133.75
135.696
135.712
135.645
135.585
135.506
135.427
135.349
135.269
135.188
135.105
135.022
134.938
134.853
134.768
134.683
134.597
134.51
134.422
134.334
134.245
134.155
134.064
133.973
133.88
133.787
135.691
135.706
135.619
135.568
135.492
135.414
135.337
135.259
135.18
135.099
135.018
134.936
134.854
134.772
134.688
134.604
134.52
134.435
134.349
134.263
134.176
134.089
134
133.912
133.822
135.696
135.701
135.599
135.55
135.477
135.4
135.325
135.248
135.171
135.093
135.013
134.934
134.854
134.774
134.693
134.612
134.53
134.447
134.364
134.281
134.197
134.112
134.028
133.941
133.856
135.707
135.694
135.588
135.532
135.461
135.386
135.312
135.237
135.161
135.085
135.008
134.931
134.853
134.775
134.697
134.618
134.538
134.459
134.378
134.298
134.217
134.135
134.053
133.972
133.889
135.711
135.682
135.58
135.515
135.444
135.371
135.298
135.224
135.151
135.076
135.002
134.927
134.852
134.776
134.7
134.623
134.546
134.469
134.391
134.314
134.235
134.157
134.079
133.999
133.921
135.704
135.661
135.569
135.496
135.425
135.353
135.282
135.21
135.139
135.067
134.994
134.922
134.849
134.776
134.702
134.628
134.554
134.479
134.404
134.329
134.253
134.178
134.102
134.027
133.951
135.686
135.63
135.547
135.472
135.402
135.333
135.264
135.195
135.125
135.056
134.986
134.916
134.845
134.774
134.703
134.632
134.56
134.488
134.415
134.343
134.27
134.198
134.125
134.052
133.98
135.652
135.586
135.515
135.443
135.376
135.309
135.243
135.177
135.11
135.043
134.976
134.908
134.841
134.772
134.704
134.635
134.565
134.496
134.426
134.356
134.287
134.217
134.147
134.077
134.007
135.6
135.534
135.474
135.408
135.346
135.283
135.221
135.158
135.094
135.03
134.966
134.901
134.835
134.77
134.703
134.637
134.57
134.503
134.436
134.369
134.302
134.234
134.168
134.1
134.034
135.539
135.481
135.429
135.37
135.314
135.256
135.197
135.138
135.077
135.016
134.955
134.892
134.829
134.766
134.703
134.639
134.574
134.51
134.445
134.381
134.316
134.251
134.187
134.123
134.058
135.475
135.427
135.383
135.331
135.28
135.227
135.172
135.116
135.059
135.001
134.942
134.883
134.823
134.762
134.701
134.64
134.578
134.516
134.454
134.391
134.329
134.267
134.206
134.143
134.082
135.413
135.374
135.337
135.291
135.246
135.197
135.147
135.095
135.041
134.986
134.93
134.873
134.816
134.758
134.699
134.64
134.581
134.521
134.461
134.402
134.342
134.282
134.222
134.164
134.104
135.356
135.323
135.292
135.252
135.211
135.167
135.121
135.072
135.022
134.97
134.917
134.863
134.808
134.753
134.697
134.64
134.583
134.526
134.468
134.411
134.353
134.296
134.239
134.182
134.125
135.303
135.276
135.25
135.214
135.179
135.138
135.096
135.05
135.003
134.954
134.904
134.853
134.801
134.748
134.694
134.639
134.585
134.53
134.474
134.419
134.364
134.309
134.254
134.199
134.145
135.255
135.233
135.21
135.179
135.147
135.11
135.071
135.029
134.985
134.939
134.891
134.843
134.793
134.742
134.691
134.638
134.586
134.533
134.48
134.427
134.374
134.321
134.268
134.215
134.163
135.212
135.193
135.173
135.146
135.117
135.083
135.047
135.008
134.967
134.923
134.879
134.832
134.785
134.736
134.687
134.637
134.587
134.536
134.485
134.434
134.383
134.332
134.28
134.23
134.18
135.173
135.157
135.14
135.115
135.089
135.058
135.025
134.988
134.95
134.909
134.866
134.822
134.777
134.731
134.684
134.636
134.587
134.538
134.489
134.44
134.391
134.341
134.293
134.243
134.195
135.139
135.124
135.11
135.087
135.064
135.035
135.004
134.97
134.934
134.895
134.855
134.813
134.77
134.725
134.68
134.634
134.587
134.54
134.493
134.445
134.398
134.351
134.303
134.256
134.209
135.108
135.095
135.082
135.062
135.041
135.014
134.985
134.953
134.919
134.882
134.844
134.804
134.762
134.72
134.676
134.632
134.587
134.542
134.496
134.45
134.404
134.359
134.313
134.267
134.223
135.081
135.07
135.058
135.039
135.02
134.995
134.968
134.938
134.905
134.87
134.833
134.795
134.755
134.715
134.673
134.63
134.587
134.543
134.499
134.455
134.41
134.366
134.322
134.278
134.234
135.058
135.048
135.037
135.02
135.001
134.978
134.952
134.924
134.892
134.859
134.824
134.787
134.749
134.709
134.669
134.628
134.586
134.544
134.501
134.458
134.415
134.372
134.33
134.287
134.245
135.038
135.029
135.019
135.002
134.985
134.963
134.939
134.911
134.881
134.849
134.815
134.78
134.743
134.705
134.666
134.626
134.585
134.544
134.503
134.461
134.42
134.378
134.336
134.295
134.254
135.021
135.013
135.004
134.988
134.971
134.95
134.927
134.9
134.872
134.841
134.808
134.773
134.738
134.701
134.663
134.624
134.584
134.545
134.504
134.464
134.423
134.383
134.343
134.302
134.263
135.008
135
134.992
134.976
134.961
134.94
134.918
134.892
134.864
134.834
134.802
134.768
134.733
134.697
134.66
134.622
134.584
134.545
134.506
134.467
134.427
134.388
134.348
134.309
134.271
134.998
134.99
134.983
134.968
134.952
134.933
134.91
134.885
134.858
134.828
134.797
134.764
134.73
134.695
134.659
134.622
134.584
134.546
134.508
134.469
134.43
134.392
134.353
134.315
134.278
134.991
134.983
134.977
134.962
134.947
134.927
134.905
134.88
134.853
134.824
134.794
134.761
134.728
134.693
134.657
134.621
134.584
134.547
134.509
134.471
134.434
134.396
134.358
134.321
134.284
134.989
134.98
134.973
134.958
134.942
134.922
134.9
134.876
134.849
134.82
134.79
134.758
134.725
134.691
134.656
134.62
134.584
134.547
134.51
134.473
134.436
134.399
134.362
134.325
134.289
134.989
134.979
134.972
134.954
134.938
134.918
134.896
134.871
134.844
134.816
134.786
134.755
134.722
134.689
134.654
134.619
134.583
134.547
134.511
134.474
134.438
134.401
134.364
134.328
134.293
134.99
134.979
134.972
134.953
134.935
134.914
134.891
134.866
134.839
134.811
134.781
134.75
134.718
134.685
134.651
134.617
134.582
134.546
134.51
134.474
134.438
134.401
134.365
134.33
134.295
134.997
134.982
134.975
134.954
134.933
134.91
134.885
134.86
134.833
134.805
134.776
134.745
134.713
134.681
134.648
134.614
134.579
134.544
134.508
134.472
134.436
134.401
134.365
134.33
134.295
135.034
134.999
134.983
134.957
134.931
134.906
134.881
134.855
134.828
134.8
134.77
134.74
134.709
134.677
134.644
134.61
134.576
134.541
134.506
134.47
134.435
134.399
134.364
134.329
134.294
135.109
135.029
134.988
134.958
134.931
134.904
134.879
134.852
134.825
134.797
134.768
134.738
134.707
134.675
134.642
134.609
134.575
134.54
134.505
134.469
134.434
134.398
134.363
134.328
134.293
133.74
133.737
133.732
133.727
133.724
133.721
133.718
133.713
133.706
133.696
133.686
133.676
133.671
133.668
133.667
133.663
133.654
133.635
133.608
133.578
133.553
133.545
133.552
133.561
133.565
133.747
133.742
133.737
133.733
133.731
133.727
133.722
133.711
133.696
133.678
133.662
133.65
133.644
133.641
133.641
133.639
133.633
133.618
133.593
133.564
133.542
133.534
133.541
133.554
133.561
133.762
133.755
133.747
133.74
133.731
133.718
133.699
133.675
133.649
133.624
133.605
133.592
133.585
133.584
133.585
133.586
133.587
133.581
133.569
133.551
133.534
133.53
133.537
133.547
133.553
133.78
133.773
133.762
133.746
133.725
133.697
133.663
133.627
133.592
133.561
133.539
133.525
133.518
133.516
133.517
133.521
133.526
133.53
133.532
133.532
133.531
133.534
133.54
133.545
133.548
133.797
133.79
133.774
133.751
133.718
133.678
133.632
133.585
133.541
133.505
133.478
133.461
133.451
133.447
133.447
133.45
133.457
133.466
133.479
133.495
133.514
133.533
133.545
133.548
133.546
133.813
133.804
133.784
133.755
133.715
133.665
133.608
133.549
133.496
133.453
133.421
133.398
133.382
133.373
133.369
133.371
133.38
133.394
133.415
133.444
133.479
133.516
133.543
133.549
133.545
133.829
133.818
133.794
133.762
133.718
133.659
133.591
133.521
133.457
133.406
133.367
133.336
133.312
133.295
133.287
133.289
133.3
133.319
133.348
133.386
133.432
133.483
133.527
133.547
133.544
133.844
133.833
133.808
133.775
133.727
133.663
133.585
133.502
133.426
133.366
133.318
133.277
133.243
133.22
133.209
133.21
133.222
133.245
133.28
133.324
133.378
133.439
133.499
133.538
133.543
133.855
133.847
133.827
133.796
133.748
133.679
133.592
133.497
133.408
133.336
133.278
133.228
133.186
133.156
133.14
133.135
133.145
133.17
133.208
133.259
133.32
133.389
133.459
133.516
133.534
133.86
133.857
133.845
133.823
133.78
133.712
133.62
133.512
133.408
133.322
133.253
133.194
133.145
133.107
133.082
133.069
133.071
133.094
133.135
133.193
133.261
133.336
133.41
133.474
133.502
133.861
133.861
133.857
133.849
133.817
133.757
133.669
133.556
133.437
133.331
133.248
133.18
133.125
133.082
133.053
133.034
133.025
133.036
133.072
133.131
133.204
133.282
133.357
133.418
133.451
133.857
133.86
133.863
133.865
133.849
133.802
133.725
133.62
133.498
133.376
133.275
133.195
133.131
133.083
133.05
133.031
133.019
133.017
133.036
133.084
133.152
133.228
133.299
133.356
133.387
133.845
133.852
133.863
133.872
133.872
133.842
133.782
133.691
133.576
133.453
133.336
133.24
133.166
133.11
133.07
133.045
133.032
133.026
133.031
133.06
133.112
133.176
133.237
133.286
133.316
133.819
133.83
133.852
133.872
133.882
133.872
133.831
133.759
133.658
133.541
133.42
133.311
133.222
133.155
133.109
133.078
133.058
133.049
133.048
133.06
133.09
133.132
133.174
133.212
133.238
133.778
133.794
133.827
133.86
133.882
133.887
133.868
133.818
133.736
133.63
133.513
133.398
133.297
133.218
133.162
133.125
133.098
133.082
133.076
133.077
133.087
133.103
133.123
133.142
133.164
133.723
133.745
133.788
133.834
133.87
133.891
133.89
133.862
133.802
133.711
133.603
133.489
133.381
133.292
133.226
133.18
133.146
133.122
133.108
133.101
133.097
133.095
133.096
133.099
133.112
133.651
133.683
133.738
133.799
133.851
133.887
133.903
133.893
133.853
133.78
133.682
133.571
133.463
133.367
133.291
133.236
133.194
133.162
133.141
133.13
133.121
133.114
133.109
133.103
133.111
133.568
133.611
133.683
133.767
133.835
133.883
133.912
133.917
133.893
133.836
133.749
133.643
133.535
133.435
133.351
133.287
133.236
133.196
133.17
133.161
133.161
133.165
133.173
133.177
133.185
133.479
133.535
133.638
133.749
133.834
133.89
133.924
133.937
133.926
133.881
133.804
133.703
133.595
133.489
133.397
133.321
133.263
133.218
133.194
133.195
133.217
133.253
133.296
133.329
133.351
133.409
133.495
133.642
133.77
133.861
133.917
133.946
133.957
133.948
133.913
133.844
133.751
133.644
133.535
133.433
133.343
133.272
133.225
133.209
133.229
133.286
133.37
133.467
133.554
133.611
133.952
133.726
133.792
133.88
133.941
133.973
133.983
133.979
133.966
133.935
133.874
133.786
133.679
133.563
133.448
133.343
133.262
133.215
133.213
133.265
133.366
133.507
133.67
133.824
133.934
134.402
134.094
134.029
134.031
134.034
134.028
134.011
133.987
133.957
133.918
133.862
133.782
133.676
133.555
133.43
133.316
133.228
133.186
133.204
133.288
133.439
133.64
133.87
134.089
134.25
134.557
134.306
134.192
134.139
134.099
134.061
134.023
133.982
133.938
133.89
133.831
133.749
133.643
133.514
133.377
133.249
133.153
133.111
133.14
133.256
133.448
133.707
134.004
134.291
134.486
134.617
134.421
134.295
134.212
134.143
134.08
134.021
133.966
133.91
133.85
133.779
133.692
133.575
133.432
133.276
133.128
133.015
132.96
132.99
133.112
133.333
133.639
133.998
134.354
134.613
134.648
134.486
134.357
134.258
134.171
134.092
134.018
133.949
133.88
133.802
133.711
133.597
133.456
133.286
133.099
132.917
132.768
132.678
132.671
132.773
132.987
133.308
133.704
134.117
134.42
134.673
134.529
134.404
134.296
134.197
134.104
134.017
133.931
133.839
133.734
133.605
133.447
133.253
133.03
132.788
132.549
132.336
132.175
132.095
132.119
132.266
132.538
132.912
133.334
133.719
134.693
134.557
134.433
134.321
134.219
134.117
134.007
133.89
133.759
133.603
133.416
133.189
132.926
132.629
132.31
131.987
131.678
131.403
131.185
131.054
131.026
131.109
131.281
131.498
131.604
134.704
134.571
134.449
134.341
134.232
134.108
133.966
133.805
133.618
133.396
133.134
132.833
132.488
132.106
131.693
131.258
130.813
130.367
129.932
129.525
129.149
128.81
128.456
128.127
127.548
134.701
134.577
134.463
134.345
134.209
134.054
133.872
133.657
133.405
133.113
132.781
132.401
131.976
131.502
130.978
130.406
129.784
129.106
128.358
127.524
126.551
125.382
123.722
121.553
116.864
134.689
134.581
134.458
134.314
134.152
133.959
133.725
133.45
133.137
132.783
132.382
131.933
131.423
130.849
130.201
129.467
128.63
127.662
126.507
125.093
123.237
120.802
116.81
112.305
95.2261
134.699
134.582
134.441
134.276
134.071
133.822
133.532
133.205
132.839
132.429
131.969
131.446
130.852
130.17
129.385
128.471
127.391
126.088
124.46
122.348
119.332
114.984
106.195
91.2943
35.0495
134.712
134.58
134.411
134.195
133.937
133.641
133.31
132.943
132.534
132.075
131.554
130.962
130.279
129.486
128.559
127.456
126.124
124.475
122.361
119.555
115.526
109.57
99.2494
82.3603
53.9801
134.679
134.513
134.302
134.05
133.762
133.44
133.082
132.682
132.235
131.729
131.154
130.49
129.721
128.82
127.751
126.466
124.892
122.921
120.386
117.027
112.404
105.855
96.4551
82.4616
65.6037
134.565
134.376
134.148
133.883
133.581
133.241
132.86
132.433
131.95
131.401
130.771
130.044
129.193
128.189
126.99
125.537
123.746
121.498
118.617
114.845
109.807
102.956
93.6333
80.6451
64.0572
134.423
134.226
133.99
133.716
133.403
133.048
132.647
132.194
131.68
131.092
130.416
129.628
128.706
127.611
126.298
124.699
122.724
120.245
117.083
112.987
107.608
100.466
90.9931
78.4162
62.5614
134.277
134.074
133.833
133.552
133.229
132.861
132.443
131.969
131.428
130.808
130.091
129.256
128.273
127.102
125.695
123.978
121.855
119.193
115.812
111.457
105.802
98.4049
88.7748
76.3388
60.9297
134.129
133.921
133.675
133.388
133.057
132.679
132.249
131.758
131.197
130.552
129.806
128.932
127.903
126.677
125.198
123.394
121.163
118.368
114.82
110.271
104.377
96.6966
86.7345
73.8751
58.0143
133.982
133.771
133.52
133.228
132.892
132.508
132.069
131.567
130.992
130.33
129.561
128.665
127.605
126.343
124.82
122.963
120.664
117.786
114.134
109.442
103.352
95.3748
84.9592
71.1935
54.113
133.84
133.625
133.372
133.077
132.738
132.35
131.906
131.398
130.816
130.145
129.368
128.456
127.385
126.108
124.57
122.695
120.376
117.471
113.765
108.999
102.714
94.4252
83.3454
68.1736
49.1104
133.707
133.489
133.234
132.938
132.598
132.209
131.764
131.255
130.671
129.999
129.22
128.313
127.245
125.976
124.452
122.599
120.312
117.447
113.782
109.023
102.58
93.9397
81.3973
63.9284
40.1353
133.584
133.364
133.108
132.813
132.473
132.086
131.643
131.137
130.558
129.893
129.125
128.231
127.184
125.946
124.466
122.676
120.48
117.742
114.247
109.707
103.455
94.8577
80.8424
60.9203
23.9569
133.475
133.253
132.997
132.703
132.366
131.982
131.545
131.047
130.478
129.827
129.077
128.211
127.199
126.011
124.602
122.913
120.86
118.331
115.157
111.082
105.63
98.2088
86.2165
68.7602
20.5682
133.378
133.156
132.901
132.609
132.276
131.899
131.47
130.984
130.43
129.799
129.077
128.244
127.282
126.161
124.843
123.282
121.413
119.15
116.369
112.912
108.507
102.84
95.126
85.7619
66.8016
133.296
133.073
132.82
132.532
132.205
131.836
131.418
130.947
130.412
129.807
129.116
128.329
127.424
126.38
125.168
123.751
122.084
120.106
117.746
114.904
111.461
107.276
102.159
96.1171
88.5943
133.227
133.005
132.755
132.471
132.152
131.793
131.389
130.934
130.423
129.846
129.194
128.454
127.613
126.653
125.552
124.286
122.822
121.126
119.157
116.876
114.241
111.245
107.94
104.591
101.741
133.171
132.952
132.705
132.427
132.117
131.769
131.38
130.945
130.458
129.913
129.3
128.614
127.838
126.964
125.976
124.856
123.586
122.148
120.527
118.709
116.703
114.544
112.328
110.275
108.75
133.129
132.912
132.669
132.399
132.098
131.763
131.39
130.976
130.516
130.003
129.434
128.798
128.09
127.3
126.419
125.437
124.345
123.135
121.804
120.364
118.834
117.266
115.758
114.478
113.646
133.098
132.884
132.647
132.384
132.094
131.772
131.417
131.025
130.592
130.113
129.585
129.002
128.359
127.649
126.869
126.012
125.076
124.06
122.973
121.825
120.65
119.492
118.431
117.576
117.055
133.078
132.868
132.637
132.383
132.104
131.797
131.459
131.089
130.683
130.238
129.751
129.218
128.636
128.002
127.313
126.568
125.768