/*--------------------------------*- C++ -*----------------------------------*\
  =========                 |
  \\      /  F ield         | OpenFOAM: The Open Source CFD Toolbox
   \\    /   O peration     | Website:  https://openfoam.org
    \\  /    A nd           | Version:  13
     \\/     M anipulation  |
\*---------------------------------------------------------------------------*/
FoamFile
{
    format      ascii;
    class       surfaceScalarField;
    location    "23";
    object      phi;
}
// * * * * * * * * * * * * * * * * * * * * * * * * * * * * * * * * * * * * * //

dimensions      [0 3 -1 0 0 0 0];

internalField   nonuniform List<scalar> 
12590
(
-8.19218e-14
8.19286e-14
-2.06467e-13
1.24555e-13
-3.38153e-13
1.31695e-13
-4.80646e-13
1.42503e-13
-6.35719e-13
1.55083e-13
-7.93802e-13
1.58092e-13
-9.40281e-13
1.46489e-13
-1.05993e-12
1.19659e-13
-1.14206e-12
8.21388e-14
-1.17509e-12
3.3035e-14
-1.14926e-12
-2.58217e-14
-1.06201e-12
-8.7239e-14
-9.16584e-13
-1.45418e-13
-7.21956e-13
-1.9462e-13
-4.93423e-13
-2.28525e-13
-2.48919e-13
-2.44496e-13
-7.05565e-15
-2.41856e-13
2.15961e-13
-2.2301e-13
4.05513e-13
-1.89544e-13
5.54902e-13
-1.49381e-13
6.59333e-13
-1.04424e-13
6.95523e-13
-3.6183e-14
6.45947e-13
4.95858e-14
3.78897e-13
2.6706e-13
3.78898e-13
-9.26756e-14
1.74616e-13
-2.52829e-13
2.84722e-13
-4.38872e-13
3.17754e-13
-6.66664e-13
3.7031e-13
-9.19987e-13
4.0842e-13
-1.17548e-12
4.13599e-13
-1.39738e-12
3.68408e-13
-1.54941e-12
2.71699e-13
-1.61606e-12
1.48801e-13
-1.57624e-12
-6.76827e-15
-1.42646e-12
-1.7559e-13
-1.17419e-12
-3.395e-13
-8.34652e-13
-4.84942e-13
-4.29552e-13
-5.99708e-13
-1.49203e-14
-6.43145e-13
3.73056e-13
-6.3246e-13
7.00119e-13
-5.68907e-13
9.27819e-13
-4.50698e-13
1.03055e-12
-2.92262e-13
9.58716e-13
-7.75381e-14
7.47906e-13
1.06397e-13
4.6754e-13
2.44194e-13
1.9582e-13
3.21319e-13
4.86155e-14
4.14277e-13
4.27515e-13
-9.88853e-14
2.73516e-13
-2.59927e-13
4.45782e-13
-4.60847e-13
5.18691e-13
-6.93294e-13
6.02774e-13
-9.35259e-13
6.50403e-13
-1.15519e-12
6.33548e-13
-1.31088e-12
5.24114e-13
-1.35454e-12
3.15375e-13
-1.26704e-12
6.13168e-14
-1.04229e-12
-2.31504e-13
-6.72419e-13
-5.45444e-13
-2.14203e-13
-7.97701e-13
3.11203e-13
-1.01033e-12
8.65888e-13
-1.15438e-12
1.41128e-12
-1.18852e-12
1.88058e-12
-1.10175e-12
2.2145e-12
-9.02813e-13
2.38359e-12
-6.19771e-13
2.29645e-12
-2.0511e-13
1.95862e-12
2.60306e-13
1.4875e-12
5.77533e-13
9.41315e-13
7.90389e-13
4.44327e-13
8.18322e-13
1.23941e-13
7.34676e-13
5.51458e-13
-9.44927e-14
3.68025e-13
-2.25132e-13
5.76441e-13
-3.83593e-13
6.77172e-13
-5.6946e-13
7.88662e-13
-7.66589e-13
8.47552e-13
-9.37264e-13
8.04242e-13
-1.02715e-12
6.14019e-13
-1.00676e-12
2.95003e-13
-8.37823e-13
-1.07602e-13
-5.50515e-13
-5.18795e-13
-1.64375e-13
-9.31567e-13
3.47668e-13
-1.30973e-12
9.30622e-13
-1.59327e-12
1.50831e-12
-1.73205e-12
2.01927e-12
-1.69947e-12
2.40969e-12
-1.49216e-12
2.6864e-12
-1.17952e-12
2.70795e-12
-6.41301e-13
2.44835e-12
5.45011e-14
2.00791e-12
7.00758e-13
1.45068e-12
1.13478e-12
8.80505e-13
1.36058e-12
3.92762e-13
1.30608e-12
9.83115e-14
1.02914e-12
6.49771e-13
-8.75623e-14
4.55607e-13
-1.84355e-13
6.73257e-13
-3.07452e-13
8.00294e-13
-4.77125e-13
9.58359e-13
-6.75361e-13
1.04581e-12
-8.61611e-13
9.90514e-13
-9.82095e-13
7.34525e-13
-9.97833e-13
3.10763e-13
-9.11753e-13
-1.9366e-13
-7.03241e-13
-7.27287e-13
-3.6774e-13
-1.26705e-12
6.42657e-14
-1.74171e-12
5.43133e-13
-2.07212e-12
1.01436e-12
-2.20326e-12
1.424e-12
-2.10909e-12
1.75496e-12
-1.8231e-12
1.97183e-12
-1.39637e-12
1.99673e-12
-6.66189e-13
1.79807e-12
2.5318e-13
1.43381e-12
1.06503e-12
9.99266e-13
1.56933e-12
5.75374e-13
1.78449e-12
2.32435e-13
1.64904e-12
4.9146e-14
1.21245e-12
6.9892e-13
-8.26317e-14
5.38262e-13
-1.5738e-13
7.48033e-13
-2.67016e-13
9.09958e-13
-4.55608e-13
1.14698e-12
-7.07343e-13
1.29757e-12
-9.73279e-13
1.25648e-12
-1.22071e-12
9.81977e-13
-1.36658e-12
4.56666e-13
-1.4195e-12
-1.40716e-13
-1.36642e-12
-7.80353e-13
-1.19582e-12
-1.43762e-12
-9.31659e-13
-2.00586e-12
-6.09102e-13
-2.39466e-12
-2.66555e-13
-2.54579e-12
6.70945e-14
-2.44272e-12
3.88435e-13
-2.14442e-12
6.40046e-13
-1.64796e-12
7.86017e-13
-8.12143e-13
8.00281e-13
2.38933e-13
6.60844e-13
1.20449e-12
4.6421e-13
1.76598e-12
2.54428e-13
1.99429e-12
8.77168e-14
1.81577e-12
1.65806e-14
1.2836e-12
7.15503e-13
-8.16454e-14
6.19935e-13
-1.47978e-13
8.14399e-13
-2.74063e-13
1.03608e-12
-5.14843e-13
1.38779e-12
-8.56775e-13
1.63954e-12
-1.25583e-12
1.65557e-12
-1.65317e-12
1.37935e-12
-1.97191e-12
7.75437e-13
-2.17715e-12
6.45519e-14
-2.27374e-12
-6.83743e-13
-2.26354e-12
-1.44779e-12
-2.1543e-12
-2.11508e-12
-1.96696e-12
-2.58197e-12
-1.72304e-12
-2.78969e-12
-1.43961e-12
-2.72614e-12
-1.09087e-12
-2.49313e-12
-7.46635e-13
-1.99218e-12
-4.48392e-13
-1.11037e-12
-1.18969e-13
-9.04713e-14
3.29321e-14
1.0526e-12
5.09469e-14
1.74799e-12
3.40345e-14
2.01122e-12
1.86777e-15
1.84795e-12
1.98878e-15
1.2835e-12
7.17496e-13
-8.26864e-14
7.02655e-13
-1.46976e-13
8.78728e-13
-2.99162e-13
1.1883e-12
-6.01636e-13
1.6903e-12
-1.03689e-12
2.07483e-12
-1.54773e-12
2.16645e-12
-2.0508e-12
1.88245e-12
-2.5111e-12
1.23577e-12
-2.83114e-12
3.84622e-13
-3.03599e-12
-4.78864e-13
-3.14318e-12
-1.34057e-12
-3.13419e-12
-2.12405e-12
-3.01872e-12
-2.6974e-12
-2.81134e-12
-2.99705e-12
-2.5275e-12
-3.00996e-12
-2.16955e-12
-2.85105e-12
-1.714e-12
-2.44771e-12
-1.22865e-12
-1.5957e-12
-7.10882e-13
-6.08219e-13
-3.09568e-13
6.51309e-13
-1.07541e-13
1.54598e-12
-2.10532e-14
1.92475e-12
-1.16248e-15
1.82809e-12
8.24273e-15
1.27412e-12
7.25743e-13
-8.04464e-14
7.8314e-13
-1.36001e-13
9.34329e-13
-2.97764e-13
1.35011e-12
-6.37374e-13
2.02996e-12
-1.13043e-12
2.56793e-12
-1.70875e-12
2.74481e-12
-2.26608e-12
2.43982e-12
-2.78057e-12
1.75031e-12
-3.11792e-12
7.22006e-13
-3.35176e-12
-2.44997e-13
-3.47102e-12
-1.22128e-12
-3.47002e-12
-2.12501e-12
-3.34381e-12
-2.82359e-12
-3.10335e-12
-3.23748e-12
-2.76756e-12
-3.34573e-12
-2.37301e-12
-3.24559e-12
-1.81853e-12
-3.00216e-12
-1.25395e-12
-2.16026e-12
-7.35035e-13
-1.12711e-12
-1.64299e-13
8.05933e-14
1.32488e-13
1.24921e-12
1.75029e-13
1.88223e-12
1.23588e-13
1.87955e-12
4.70125e-14
1.35071e-12
7.7276e-13
-6.95434e-14
8.5273e-13
-9.53184e-14
9.6016e-13
-2.34931e-13
1.48978e-12
-5.60604e-13
2.35569e-12
-1.04742e-12
3.0548e-12
-1.59329e-12
3.29073e-12
-2.10061e-12
2.94718e-12
-2.51347e-12
2.16322e-12
-2.79259e-12
1.00117e-12
-2.92695e-12
-1.10601e-13
-2.94789e-12
-1.20031e-12
-2.83789e-12
-2.23499e-12
-2.60275e-12
-3.0587e-12
-2.25928e-12
-3.58092e-12
-1.83951e-12
-3.76548e-12
-1.40536e-12
-3.67971e-12
-8.23696e-13
-3.5838e-12
-2.35782e-13
-2.74816e-12
2.75716e-13
-1.63859e-12
7.50205e-13
-3.93876e-13
8.42231e-13
1.1572e-12
7.14933e-13
2.00955e-12
4.25146e-13
2.16936e-12
1.37764e-13
1.63812e-12
9.10528e-13
-4.46593e-14
8.97445e-13
-5.5037e-15
9.21069e-13
-6.66926e-14
1.55103e-12
-3.01261e-13
2.59032e-12
-6.62305e-13
3.4159e-12
-1.04597e-12
3.67446e-12
-1.35545e-12
3.2567e-12
-1.54087e-12
2.34869e-12
-1.58205e-12
1.0424e-12
-1.50041e-12
-1.92199e-13
-1.27503e-12
-1.42565e-12
-9.07028e-13
-2.60296e-12
-4.53144e-13
-3.51255e-12
6.44067e-14
-4.09844e-12
6.19139e-13
-4.32019e-12
1.1212e-12
-4.18175e-12
1.58107e-12
-4.04365e-12
2.0958e-12
-3.26287e-12
2.48299e-12
-2.02575e-12
2.66412e-12
-5.74988e-13
2.43908e-12
1.38226e-12
1.7536e-12
2.69505e-12
9.58198e-13
2.96478e-12
2.89579e-13
2.30676e-12
1.20011e-12
-9.54011e-16
8.98463e-13
1.50579e-13
7.6961e-13
2.51902e-13
1.44979e-12
2.22533e-13
2.61976e-12
1.37474e-13
3.50103e-12
9.18505e-14
3.72014e-12
1.73108e-13
3.1755e-12
4.35239e-13
2.08661e-12
8.12447e-13
6.65235e-13
1.32294e-12
-7.02653e-13
1.98959e-12
-2.09226e-12
2.73657e-12
-3.3499e-12
3.51752e-12
-4.29348e-12
4.29294e-12
-4.87383e-12
5.01722e-12
-5.04444e-12
5.60228e-12
-4.7668e-12
5.85674e-12
-4.2981e-12
6.13371e-12
-3.53982e-12
6.12825e-12
-2.02027e-12
5.75816e-12
-2.04889e-13
4.83946e-12
2.30098e-12
3.48979e-12
4.04473e-12
1.84328e-12
4.61131e-12
5.3779e-13
3.61227e-12
1.73791e-12
7.31794e-14
8.25356e-13
4.07772e-13
4.35102e-13
7.74766e-13
1.08288e-12
1.09829e-12
2.29631e-12
1.44763e-12
3.15177e-12
1.94713e-12
3.22072e-12
2.6037e-12
2.51899e-12
3.54563e-12
1.14474e-12
4.51366e-12
-3.02739e-13
5.69142e-12
-1.88038e-12
7.02494e-12
-3.42574e-12
8.35036e-12
-4.6753e-12
9.62267e-12
-5.56575e-12
1.07762e-11
-6.02737e-12
1.17395e-11
-6.00767e-12
1.24333e-11
-5.46062e-12
1.26108e-11
-4.47558e-12
1.25212e-11
-3.45018e-12
1.19404e-11
-1.43943e-12
1.05565e-11
1.17896e-12
8.52678e-12
4.33076e-12
6.0396e-12
6.53193e-12
3.44916e-12
7.20175e-12
1.07468e-12
5.98677e-12
2.81259e-12
1.76374e-13
6.4906e-13
7.74448e-13
-1.62882e-13
1.53906e-12
3.18348e-13
2.38978e-12
1.44568e-12
3.38095e-12
2.16068e-12
4.64091e-12
1.96083e-12
6.18081e-12
9.79163e-13
7.86014e-12
-5.34532e-13
9.83569e-12
-2.27824e-12
1.20106e-11
-4.05529e-12
1.41882e-11
-5.60321e-12
1.63186e-11
-6.80574e-12
1.83054e-11
-7.55254e-12
2.00319e-11
-7.7538e-12
2.13766e-11
-7.35233e-12
2.2243e-11
-6.32704e-12
2.24088e-11
-4.64137e-12
2.19094e-11
-2.95079e-12
2.05331e-11
-6.30756e-14
1.77246e-11
3.98742e-12
1.42267e-11
7.82867e-12
1.02102e-11
1.05484e-11
5.82487e-12
1.15871e-11
1.91683e-12
9.89482e-12
4.72941e-12
3.18258e-13
3.30882e-13
1.27102e-12
-1.11556e-12
2.57306e-12
-9.83604e-13
4.14344e-12
-1.24612e-13
6.03181e-12
2.72396e-13
8.27717e-12
-2.8446e-13
1.08524e-11
-1.59595e-12
1.38213e-11
-3.50347e-12
1.70562e-11
-5.51309e-12
2.04052e-11
-7.40418e-12
2.37761e-11
-8.97409e-12
2.70158e-11
-1.00454e-11
2.99766e-11
-1.05133e-11
3.25106e-11
-1.02878e-11
3.44561e-11
-9.29778e-12
3.56493e-11
-7.52025e-12
3.59088e-11
-4.90088e-12
3.50884e-11
-2.13038e-12
3.24089e-11
2.61648e-12
2.83105e-11
8.08574e-12
2.31472e-11
1.2992e-11
1.68118e-11
1.68838e-11
9.68242e-12
1.87165e-11
3.20134e-12
1.63759e-11
7.93075e-12
4.98781e-13
-1.67823e-13
1.89939e-12
-2.51608e-12
3.89467e-12
-2.97881e-12
6.37607e-12
-2.60593e-12
9.35827e-12
-2.70973e-12
1.28801e-11
-3.8062e-12
1.69408e-11
-5.65662e-12
2.14108e-11
-7.97342e-12
2.62079e-11
-1.03101e-11
3.11518e-11
-1.2348e-11
3.60618e-11
-1.3884e-11
4.07681e-11
-1.47517e-11
4.50778e-11
-1.48229e-11
4.87846e-11
-1.39946e-11
5.16591e-11
-1.21722e-11
5.34614e-11
-9.32257e-12
5.39697e-11
-5.40919e-12
5.28975e-11
-1.05814e-12
4.93691e-11
6.14489e-12
4.42029e-11
1.32519e-11
3.6742e-11
2.0453e-11
2.70292e-11
2.65966e-11
1.5935e-11
2.98107e-11
5.40754e-12
2.69033e-11
1.33383e-11
7.22068e-13
-8.8983e-13
2.6825e-12
-4.47645e-12
5.51784e-12
-5.81408e-12
9.12302e-12
-6.21105e-12
1.34677e-11
-7.05435e-12
1.85629e-11
-8.90129e-12
2.43629e-11
-1.14566e-11
3.06961e-11
-1.43065e-11
3.74046e-11
-1.70185e-11
4.43208e-11
-1.92642e-11
5.12319e-11
-2.07951e-11
5.79062e-11
-2.14259e-11
6.40932e-11
-2.10099e-11
6.95214e-11
-1.94228e-11
7.38977e-11
-1.65486e-11
7.68707e-11
-1.22955e-11
7.81245e-11
-6.66296e-12
7.72611e-11
-1.94739e-13
7.36135e-11
9.79255e-12
6.70919e-11
1.97735e-11
5.70578e-11
3.04871e-11
4.34062e-11
4.02483e-11
2.67625e-11
4.64543e-11
9.45105e-12
4.42148e-11
2.27893e-11
9.84375e-13
-1.87417e-12
3.59664e-12
-7.08868e-12
7.45241e-12
-9.6698e-12
1.2375e-11
-1.11336e-11
1.83596e-11
-1.30389e-11
2.5288e-11
-1.58296e-11
3.31034e-11
-1.92719e-11
4.1637e-11
-2.28401e-11
5.06926e-11
-2.60739e-11
6.00544e-11
-2.8626e-11
6.94875e-11
-3.02281e-11
7.87269e-11
-3.06653e-11
8.74713e-11
-2.97543e-11
9.53807e-11
-2.73321e-11
1.02077e-10
-2.32451e-11
1.07132e-10
-1.735e-11
1.10107e-10
-9.63793e-12
1.10591e-10
-6.79025e-13
1.07929e-10
1.24545e-11
1.0112e-10
2.65824e-11
8.92389e-11
4.23684e-11
7.07839e-11
5.87033e-11
4.49508e-11
7.22874e-11
1.49096e-11
7.42559e-11
3.76989e-11
1.2865e-12
-3.16065e-12
4.663e-12
-1.04652e-11
9.67549e-12
-1.46823e-11
1.61097e-11
-1.75678e-11
2.39032e-11
-2.08323e-11
3.29571e-11
-2.48835e-11
4.31274e-11
-2.94421e-11
5.42254e-11
-3.39379e-11
6.60481e-11
-3.78966e-11
7.83727e-11
-4.09504e-11
9.09531e-11
-4.28085e-11
1.03516e-10
-4.32283e-11
1.15757e-10
-4.1995e-11
1.2733e-10
-3.89053e-11
1.37852e-10
-3.37672e-11
1.46906e-10
-2.64032e-11
1.53904e-10
-1.66361e-11
1.57591e-10
-4.36639e-12
1.57884e-10
1.21621e-11
1.52682e-10
3.17837e-11
1.38906e-10
5.61448e-11
1.1262e-10
8.49893e-11
7.05542e-11
1.14353e-10
1.86666e-11
1.26143e-10
5.63655e-11
1.6215e-12
-4.78215e-12
5.84731e-12
-1.46909e-11
1.21548e-11
-2.09897e-11
2.02929e-11
-2.57059e-11
3.01146e-11
-3.06539e-11
4.1513e-11
-3.62817e-11
5.43063e-11
-4.22352e-11
6.83188e-11
-4.79504e-11
8.33457e-11
-5.29234e-11
9.91643e-11
-5.67689e-11
1.15531e-10
-5.9175e-11
1.32176e-10
-5.98732e-11
1.48797e-10
-5.86156e-11
1.65051e-10
-5.51594e-11
1.80551e-10
-4.92674e-11
1.94825e-10
-4.06772e-11
2.07159e-10
-2.89701e-11
2.16306e-10
-1.35131e-11
2.22774e-10
5.69372e-12
2.20918e-10
3.36406e-11
2.07323e-10
6.97394e-11
1.76506e-10
1.15806e-10
1.26217e-10
1.64643e-10
6.32581e-11
1.89102e-10
1.19624e-10
1.56384e-12
-6.346e-12
5.67286e-12
-1.88e-11
1.19617e-11
-2.72785e-11
2.01286e-11
-3.38728e-11
2.99285e-11
-4.04537e-11
4.11912e-11
-4.75442e-11
5.38079e-11
-5.48517e-11
6.77236e-11
-6.1866e-11
8.29203e-11
-6.81199e-11
9.9397e-11
-7.32455e-11
1.17172e-10
-7.69497e-11
1.36277e-10
-7.89779e-11
1.56768e-10
-7.91067e-11
1.78733e-10
-7.7124e-11
2.02309e-10
-7.28433e-11
2.27715e-10
-6.6084e-11
2.55348e-10
-5.66023e-11
2.85868e-10
-4.40333e-11
3.19257e-10
-2.76958e-11
3.58163e-10
-5.26509e-12
4.03702e-10
2.42002e-11
4.57738e-10
6.17704e-11
5.20059e-10
1.02322e-10
5.89662e-10
1.19499e-10
4.73832e-11
6.61903e-10
1.70829e-12
-8.05429e-12
6.20977e-12
-2.33014e-11
1.31192e-11
-3.41879e-11
2.21139e-11
-4.28674e-11
3.29405e-11
-5.12802e-11
4.54285e-11
-6.00321e-11
5.94833e-11
-6.89064e-11
7.50629e-11
-7.74455e-11
9.21646e-11
-8.52214e-11
1.10812e-10
-9.18926e-11
1.31058e-10
-9.71952e-11
1.5298e-10
-1.009e-10
1.7669e-10
-1.02817e-10
2.02349e-10
-1.02783e-10
2.3018e-10
-1.00674e-10
2.60507e-10
-9.6411e-11
2.93833e-10
-8.99285e-11
3.30901e-10
-8.11017e-11
3.72783e-10
-6.9577e-11
4.22039e-10
-5.45215e-11
4.81328e-10
-3.50891e-11
5.53803e-10
-1.0704e-11
6.40876e-10
1.52484e-11
7.30624e-10
2.97506e-11
1.14858e-11
7.66521e-10
1.82741e-12
-9.8817e-12
6.65846e-12
-2.81325e-11
1.40883e-11
-4.16177e-11
2.37852e-11
-5.25642e-11
3.5492e-11
-6.29869e-11
4.90385e-11
-7.35784e-11
6.43313e-11
-8.4199e-11
8.13339e-11
-9.44479e-11
1.0005e-10
-1.03937e-10
1.20515e-10
-1.12358e-10
1.4279e-10
-1.1947e-10
1.66967e-10
-1.25077e-10
1.9317e-10
-1.2902e-10
2.21566e-10
-1.31178e-10
2.52368e-10
-1.31476e-10
2.85852e-10
-1.29895e-10
3.22383e-10
-1.26459e-10
3.62467e-10
-1.21185e-10
4.06868e-10
-1.13978e-10
4.5678e-10
-1.04434e-10
5.13492e-10
-9.18007e-11
5.77775e-10
-7.49869e-11
6.46709e-10
-5.36857e-11
7.06297e-10
-2.98378e-11
-3.69383e-12
7.21477e-10
1.92127e-12
-1.1803e-11
7.01609e-12
-3.32273e-11
1.48691e-11
-4.94707e-11
2.51439e-11
-6.2839e-11
3.75813e-11
-7.54241e-11
5.2009e-11
-8.8006e-11
6.83312e-11
-1.00521e-10
8.65087e-11
-1.12625e-10
1.06542e-10
-1.23971e-10
1.28462e-10
-1.34277e-10
1.52322e-10
-1.43329e-10
1.78199e-10
-1.50954e-10
2.06197e-10
-1.57017e-10
2.36435e-10
-1.61417e-10
2.69053e-10
-1.64093e-10
3.04188e-10
-1.6503e-10
3.41968e-10
-1.6424e-10
3.82499e-10
-1.61716e-10
4.25838e-10
-1.57316e-10
4.71956e-10
-1.50552e-10
5.2049e-10
-1.40334e-10
5.70159e-10
-1.24656e-10
6.17021e-10
-1.00547e-10
6.5124e-10
-6.40572e-11
-7.45303e-12
6.54999e-10
1.99016e-12
-1.37931e-11
7.28492e-12
-3.8522e-11
1.54666e-11
-5.76523e-11
2.61987e-11
-7.3571e-11
3.9221e-11
-8.84463e-11
5.4358e-11
-1.03143e-10
7.1508e-11
-1.17671e-10
9.06237e-11
-1.31741e-10
1.11694e-10
-1.45041e-10
1.34734e-10
-1.57317e-10
1.59777e-10
-1.68371e-10
1.8687e-10
-1.78047e-10
2.1607e-10
-1.86217e-10
2.47432e-10
-1.9278e-10
2.80994e-10
-1.97655e-10
3.16746e-10
-2.00781e-10
3.54591e-10
-2.02085e-10
3.94295e-10
-2.0142e-10
4.35414e-10
-1.98435e-10
4.7721e-10
-1.92349e-10
5.18504e-10
-1.81628e-10
5.57429e-10
-1.63582e-10
5.90903e-10
-1.34021e-10
6.13798e-10
-8.69525e-11
-1.35674e-11
6.19912e-10
2.03473e-12
-1.58278e-11
7.46784e-12
-4.39551e-11
1.58877e-11
-6.60721e-11
2.69626e-11
-8.46458e-11
4.04329e-11
-1.01916e-10
5.61193e-11
-1.18829e-10
7.39121e-11
-1.35463e-10
9.37512e-11
-1.5158e-10
1.15609e-10
-1.66899e-10
1.39479e-10
-1.81186e-10
1.65365e-10
-1.94258e-10
1.93279e-10
-2.05961e-10
2.23227e-10
-2.16165e-10
2.55197e-10
-2.2475e-10
2.89137e-10
-2.31595e-10
3.24919e-10
-2.36563e-10
3.62297e-10
-2.39464e-10
4.00852e-10
-2.39975e-10
4.39929e-10
-2.37512e-10
4.78592e-10
-2.31012e-10
5.15606e-10
-2.18642e-10
5.49458e-10
-1.97433e-10
5.78479e-10
-1.63042e-10
6.01119e-10
-1.09592e-10
-2.9748e-11
6.17299e-10
2.05633e-12
-1.78842e-11
7.57017e-12
-4.94689e-11
1.61442e-11
-7.46462e-11
2.74564e-11
-9.59579e-11
4.12498e-11
-1.1571e-10
5.73415e-11
-1.34921e-10
7.56117e-11
-1.53734e-10
9.59857e-11
-1.71954e-10
1.18417e-10
-1.89329e-10
1.42874e-10
-2.05643e-10
1.69333e-10
-2.20717e-10
1.97769e-10
-2.34397e-10
2.28143e-10
-2.4654e-10
2.6039e-10
-2.56997e-10
2.94394e-10
-2.65598e-10
3.29958e-10
-2.72127e-10
3.66771e-10
-2.76277e-10
4.04368e-10
-2.77572e-10
4.42107e-10
-2.75251e-10
4.79175e-10
-2.6808e-10
5.14659e-10
-2.54126e-10
5.47749e-10
-2.30524e-10
5.78052e-10
-1.93344e-10
6.06154e-10
-1.37695e-10
-5.82025e-11
6.34609e-10
2.05712e-12
-1.99413e-11
7.59953e-12
-5.50113e-11
1.62521e-11
-8.32988e-11
2.7707e-11
-1.07413e-10
4.17124e-11
-1.29715e-10
5.80817e-11
-1.5129e-10
7.66848e-11
-1.72337e-10
9.74317e-11
-1.927e-10
1.20257e-10
-2.12154e-10
1.45106e-10
-2.30493e-10
1.71931e-10
-2.47542e-10
2.00677e-10
-2.63142e-10
2.3127e-10
-2.77133e-10
2.63611e-10
-2.89337e-10
2.97549e-10
-2.99536e-10
3.32867e-10
-3.07445e-10
3.69255e-10
-3.12665e-10
4.063e-10
-3.14617e-10
4.43492e-10
-3.12443e-10
4.80276e-10
-3.04864e-10
5.16179e-10
-2.9003e-10
5.5105e-10
-2.65395e-10
5.85408e-10
-2.27701e-10
6.2092e-10
-1.73207e-10
-9.82605e-11
6.60978e-10
2.03974e-12
-2.19811e-11
7.56522e-12
-6.05368e-11
1.62303e-11
-9.19638e-11
2.77454e-11
-1.18928e-10
4.18658e-11
-1.43835e-10
5.84016e-11
-1.67825e-10
7.72134e-11
-1.91148e-10
9.8197e-11
-2.13684e-10
1.2127e-10
-2.35227e-10
1.46362e-10
-2.55584e-10
1.73402e-10
-2.74581e-10
2.02314e-10
-2.92054e-10
2.33007e-10
-3.07826e-10
2.65363e-10
-3.21693e-10
2.99226e-10
-3.33399e-10
3.34391e-10
-3.4261e-10
3.70597e-10
-3.48871e-10
4.07532e-10
-3.51553e-10
4.44865e-10
-3.49775e-10
4.82318e-10
-3.42317e-10
5.19815e-10
-3.27527e-10
5.57698e-10
-3.03278e-10
5.97024e-10
-2.67027e-10
6.39893e-10
-2.16076e-10
-1.48097e-10
6.8973e-10
2.00718e-12
-2.39883e-11
7.47741e-12
-6.60071e-11
1.60991e-11
-1.00585e-10
2.7604e-11
-1.30433e-10
4.17559e-11
-1.57987e-10
5.83634e-11
-1.84433e-10
7.72789e-11
-2.10063e-10
9.83873e-11
-2.34792e-10
1.21593e-10
-2.58433e-10
1.46812e-10
-2.80803e-10
1.7396e-10
-3.0173e-10
2.02951e-10
-3.21044e-10
2.33683e-10
-3.38559e-10
2.6604e-10
-3.5405e-10
2.9988e-10
-3.67239e-10
3.35035e-10
-3.77764e-10
3.71314e-10
-3.8515e-10
4.08524e-10
-3.88763e-10
4.46511e-10
-3.87762e-10
4.85241e-10
-3.81047e-10
5.24932e-10
-3.67219e-10
5.6624e-10
-3.44585e-10
6.10471e-10
-3.11258e-10
6.59788e-10
-2.65393e-10
-2.05617e-10
7.17307e-10
1.96249e-12
-2.59508e-11
7.34638e-12
-7.1391e-11
1.58784e-11
-1.09117e-10
2.73141e-11
-1.41868e-10
4.14272e-11
-1.721e-10
5.80262e-11
-2.01032e-10
7.69583e-11
-2.28995e-10
9.81e-11
-2.55933e-10
1.21347e-10
-2.8168e-10
1.46607e-10
-3.06062e-10
1.73789e-10
-3.28911e-10
2.02801e-10
-3.50057e-10
2.33548e-10
-3.69305e-10
2.65923e-10
-3.86425e-10
2.99812e-10
-4.01128e-10
3.35095e-10
-4.13047e-10
3.71659e-10
-4.21714e-10
4.09424e-10
-4.26528e-10
4.48391e-10
-4.26728e-10
4.8871e-10
-4.21367e-10
5.30799e-10
-4.09308e-10
5.75473e-10
-3.8926e-10
6.24098e-10
-3.59883e-10
6.78699e-10
-3.19994e-10
-2.68886e-10
7.41968e-10
1.90856e-12
-2.78594e-11
7.18164e-12
-7.66641e-11
1.55867e-11
-1.17523e-10
2.69046e-11
-1.53186e-10
4.09201e-11
-1.86116e-10
5.74439e-11
-2.17555e-10
7.632e-11
-2.47871e-10
9.74204e-11
-2.77034e-10
1.20636e-10
-3.04896e-10
1.45869e-10
-3.31295e-10
1.73029e-10
-3.56071e-10
2.02028e-10
-3.79055e-10
2.32777e-10
-4.00055e-10
2.65192e-10
-4.18839e-10
2.9919e-10
-4.35126e-10
3.34702e-10
-4.4856e-10
3.71691e-10
-4.58702e-10
4.10172e-10
-4.6501e-10
4.50266e-10
-4.66822e-10
4.92254e-10
-4.63355e-10
5.36667e-10
-4.5372e-10
5.84377e-10
-4.3697e-10
6.36695e-10
-4.12201e-10
6.9542e-10
-3.78719e-10
-3.36269e-10
7.62803e-10
1.84788e-12
-2.97074e-11
6.99163e-12
-8.1808e-11
1.52404e-11
-1.25771e-10
2.64008e-11
-1.64347e-10
4.02702e-11
-1.99985e-10
5.6663e-11
-2.33948e-10
7.54229e-11
-2.66631e-10
9.64199e-11
-2.9803e-10
1.19543e-10
-3.28019e-10
1.44695e-10
-3.56447e-10
1.71788e-10
-3.83164e-10
2.00741e-10
-4.08008e-10
2.31481e-10
-4.30794e-10
2.63943e-10
-4.51301e-10
2.9808e-10
-4.69263e-10
3.33872e-10
-4.84351e-10
3.71341e-10
-4.96171e-10
4.10582e-10
-5.04251e-10
4.51798e-10
-5.08038e-10
4.95351e-10
-5.06908e-10
5.41824e-10
-5.00192e-10
5.92079e-10
-4.87225e-10
6.47316e-10
-4.67439e-10
7.09083e-10
-4.40485e-10
-4.06408e-10
7.79222e-10
1.78267e-12
-3.14901e-11
6.78358e-12
-8.68089e-11
1.48534e-11
-1.33841e-10
2.58245e-11
-1.75318e-10
3.95077e-11
-2.13668e-10
5.57228e-11
-2.50163e-10
7.43152e-11
-2.85223e-10
9.51554e-11
-3.1887e-10
1.18134e-10
-3.50997e-10
1.43156e-10
-3.81469e-10
1.70138e-10
-4.10146e-10
1.99011e-10
-4.3688e-10
2.29715e-10
-4.61498e-10
2.6221e-10
-4.83796e-10
2.96478e-10
-5.03532e-10
3.3254e-10
-5.20413e-10
3.70468e-10
-5.34099e-10
4.10409e-10
-5.44192e-10
4.5262e-10
-5.50249e-10
4.97502e-10
-5.51791e-10
5.45646e-10
-5.48336e-10
5.97865e-10
-5.39444e-10
6.55222e-10
-5.24796e-10
7.19025e-10
-5.04288e-10
-4.7815e-10
7.90767e-10
1.71477e-12
-3.3205e-11
6.56395e-12
-9.16582e-11
1.44373e-11
-1.41715e-10
2.51936e-11
-1.86074e-10
3.86571e-11
-2.27131e-10
5.46546e-11
-2.6616e-10
7.30348e-11
-3.03603e-10
9.36706e-11
-3.39506e-10
1.16455e-10
-3.73781e-10
1.41298e-10
-4.06312e-10
1.68124e-10
-4.36972e-10
1.96873e-10
-4.65628e-10
2.275e-10
-4.92125e-10
2.59986e-10
-5.16282e-10
2.94339e-10
-5.37884e-10
3.30609e-10
-5.56683e-10
3.68902e-10
-5.72392e-10
4.09401e-10
-5.84691e-10
4.52389e-10
-5.93237e-10
4.98276e-10
-5.97678e-10
5.47628e-10
-5.97688e-10
6.01187e-10
-5.93003e-10
6.59876e-10
-5.83485e-10
7.24785e-10
-5.69197e-10
-5.50479e-10
7.97114e-10
1.64564e-12
-3.48507e-11
6.33657e-12
-9.63492e-11
1.40012e-11
-1.49379e-10
2.45221e-11
-1.96595e-10
3.77379e-11
-2.40347e-10
5.34831e-11
-2.81906e-10
7.16109e-11
-3.21731e-10
9.19979e-11
-3.59893e-10
1.14541e-10
-3.96324e-10
1.39156e-10
-4.30926e-10
1.65774e-10
-4.6359e-10
1.94343e-10
-4.94198e-10
2.24835e-10
-5.22617e-10
2.57243e-10
-5.4869e-10
2.91597e-10
-5.72238e-10
3.27967e-10
-5.93053e-10
3.6648e-10
-6.10905e-10
4.07335e-10
-6.25546e-10
4.50821e-10
-6.36723e-10
4.97336e-10
-6.44193e-10
5.474e-10
-6.47753e-10
6.01672e-10
-6.47275e-10
6.6094e-10
-6.42753e-10
7.26101e-10
-6.34358e-10
-6.22491e-10
7.98113e-10
1.5763e-12
-3.64271e-11
6.10584e-12
-1.00879e-10
1.3552e-11
-1.56825e-10
2.38209e-11
-2.06864e-10
3.67649e-11
-2.53291e-10
5.22268e-11
-2.97367e-10
7.00651e-11
-3.39569e-10
9.01606e-11
-3.79988e-10
1.12415e-10
-4.18579e-10
1.36749e-10
-4.5526e-10
1.631e-10
-4.89941e-10
1.91425e-10
-5.22523e-10
2.21705e-10
-5.52897e-10
2.53947e-10
-5.80931e-10
2.8819e-10
-6.06481e-10
3.24518e-10
-6.29381e-10
3.63067e-10
-6.49454e-10
4.04037e-10
-6.66517e-10
4.47708e-10
-6.80394e-10
4.94449e-10
-6.90933e-10
5.44726e-10
-6.9803e-10
5.99108e-10
-7.01657e-10
6.58256e-10
-7.01901e-10
7.22899e-10
-6.99002e-10
-6.93388e-10
7.93796e-10
1.50746e-12
-3.79347e-11
5.8739e-12
-1.05245e-10
1.30949e-11
-1.64047e-10
2.3098e-11
-2.16867e-10
3.57492e-11
-2.65942e-10
5.08995e-11
-3.12518e-10
6.84132e-11
-3.57083e-10
8.81756e-11
-3.9975e-10
1.10093e-10
-4.40496e-10
1.3409e-10
-4.79256e-10
1.6011e-10
-5.15961e-10
1.88117e-10
-5.5053e-10
2.18097e-10
-5.82877e-10
2.50065e-10
-6.12899e-10
2.84066e-10
-6.40482e-10
3.20188e-10
-6.65502e-10
3.58565e-10
-6.87831e-10
3.9939e-10
-7.07342e-10
4.42921e-10
-7.23924e-10
4.89487e-10
-7.37499e-10
5.39495e-10
-7.48038e-10
5.93426e-10
-7.55587e-10
6.51822e-10
-7.60297e-10
7.15268e-10
-7.62448e-10
-7.62474e-10
7.84354e-10
1.43958e-12
-3.93744e-11
5.64254e-12
-1.09448e-10
1.26333e-11
-1.71037e-10
2.23591e-11
-2.26593e-10
3.46987e-11
-2.78282e-10
4.95114e-11
-3.2733e-10
6.6667e-11
-3.74238e-10
8.60553e-11
-4.19138e-10
1.07586e-10
-4.62026e-10
1.31189e-10
-5.02859e-10
1.5681e-10
-5.41582e-10
1.84418e-10
-5.78138e-10
2.14002e-10
-6.12461e-10
2.45578e-10
-6.44475e-10
2.79194e-10
-6.74098e-10
3.14934e-10
-7.01242e-10
3.52924e-10
-7.25821e-10
3.93338e-10
-7.47757e-10
4.36407e-10
-7.66993e-10
4.82416e-10
-7.83508e-10
5.31708e-10
-7.9733e-10
5.8468e-10
-8.08559e-10
6.41767e-10
-8.17384e-10
7.03427e-10
-8.24107e-10
-8.29156e-10
7.70109e-10
1.37303e-12
-4.07475e-11
5.41292e-12
-1.13488e-10
1.21697e-11
-1.77794e-10
2.16083e-11
-2.36031e-10
3.36194e-11
-2.90293e-10
4.807e-11
-3.41781e-10
6.48354e-11
-3.91003e-10
8.38094e-11
-4.38112e-10
1.04905e-10
-4.83122e-10
1.28055e-10
-5.26008e-10
1.53207e-10
-5.66734e-10
1.80331e-10
-6.05262e-10
2.09418e-10
-6.41547e-10
2.40481e-10
-6.75538e-10
2.73565e-10
-7.07182e-10
3.08745e-10
-7.36422e-10
3.46133e-10
-7.63208e-10
3.85881e-10
-7.87505e-10
4.28184e-10
-8.09297e-10
4.73283e-10
-8.28607e-10
5.21458e-10
-8.45505e-10
5.73025e-10
-8.60126e-10
6.28323e-10
-8.72683e-10
6.877e-10
-8.83484e-10
-8.92939e-10
7.51484e-10
1.30796e-12
-4.20556e-11
5.18582e-12
-1.17366e-10
1.17058e-11
-1.84314e-10
2.08486e-11
-2.45174e-10
3.25156e-11
-3.0196e-10
4.65813e-11
-3.55846e-10
6.29259e-11
-4.07348e-10
8.14469e-11
-4.56633e-10
1.0206e-10
-5.03735e-10
1.24698e-10
-5.48645e-10
1.49311e-10
-5.91347e-10
1.75867e-10
-6.31819e-10
2.04356e-10
-6.70035e-10
2.34786e-10
-7.05969e-10
2.67193e-10
-7.39589e-10
3.01641e-10
-7.7087e-10
3.38224e-10
-7.99791e-10
3.77066e-10
-8.26347e-10
4.18329e-10
-8.50559e-10
4.62203e-10
-8.72481e-10
5.0891e-10
-8.92212e-10
5.58692e-10
-9.09908e-10
6.11802e-10
-9.25793e-10
6.68489e-10
-9.40171e-10
-9.53427e-10
7.28978e-10
1.24453e-12
-4.33003e-11
4.96166e-12
-1.21084e-10
1.12427e-11
-1.90595e-10
2.00821e-11
-2.54014e-10
3.13909e-11
-3.13269e-10
4.50505e-11
-3.69506e-10
6.09455e-11
-4.23243e-10
7.89763e-11
-4.74664e-10
9.90599e-11
-5.23818e-10
1.2113e-10
-5.70715e-10
1.45136e-10
-6.15353e-10
1.71044e-10
-6.57726e-10
1.98837e-10
-6.97828e-10
2.28519e-10
-7.3565e-10
2.60114e-10
-7.71184e-10
2.9367e-10
-8.04426e-10
3.29261e-10
-8.35381e-10
3.66984e-10
-8.6407e-10
4.06962e-10
-8.90537e-10
4.49341e-10
-9.1486e-10
4.94285e-10
-9.37156e-10
5.4197e-10
-9.57592e-10
5.9257e-10
-9.76393e-10
6.46249e-10
-9.9385e-10
-1.01032e-09
7.03141e-10
1.18272e-12
-4.44831e-11
4.74068e-12
-1.24642e-10
1.07812e-11
-1.96636e-10
1.93104e-11
-2.62543e-10
3.02484e-11
-3.24206e-10
4.34824e-11
-3.8274e-10
5.89011e-11
-4.38661e-10
7.64071e-11
-4.92169e-10
9.59185e-11
-5.43329e-10
1.17368e-10
-5.92165e-10
1.40703e-10
-6.38688e-10
1.65886e-10
-6.82909e-10
1.92894e-10
-7.24836e-10
2.21721e-10
-7.64477e-10
2.5238e-10
-8.01843e-10
2.84901e-10
-8.36947e-10
3.19336e-10
-8.69816e-10
3.55754e-10
-9.00487e-10
3.94241e-10
-9.29025e-10
4.34901e-10
-9.5552e-10
4.77843e-10
-9.80098e-10
5.23183e-10
-1.00293e-09
5.71027e-10
-1.02424e-09
6.21464e-10
-1.04429e-09
-1.0634e-09
6.74548e-10
1.12252e-12
-4.56058e-11
4.52296e-12
-1.28042e-10
1.03218e-11
-2.02435e-10
1.85353e-11
-2.70756e-10
2.9091e-11
-3.34762e-10
4.1882e-11
-3.95531e-10
5.68003e-11
-4.5358e-10
7.37501e-11
-5.09119e-10
9.26497e-11
-5.62229e-10
1.13431e-10
-6.12946e-10
1.36037e-10
-6.61295e-10
1.60426e-10
-7.07298e-10
1.86568e-10
-7.50977e-10
2.14446e-10
-7.92355e-10
2.4406e-10
-8.31456e-10
2.75422e-10
-8.6831e-10
3.08561e-10
-9.02955e-10
3.43519e-10
-9.35445e-10
3.80348e-10
-9.65854e-10
4.19109e-10
-9.94281e-10
4.59866e-10
-1.02086e-09
5.02678e-10
-1.04574e-09
5.47592e-10
-1.06915e-09
5.94632e-10
-1.09133e-09
-1.11256e-09
6.43784e-10
1.06392e-12
-4.66699e-11
4.3086e-12
-1.31287e-10
9.86518e-12
-2.07992e-10
1.77581e-11
-2.78649e-10
2.79221e-11
-3.44926e-10
4.02548e-11
-4.07863e-10
5.46514e-11
-4.67976e-10
7.10173e-11
-5.25485e-10
8.92704e-11
-5.80482e-10
1.0934e-10
-6.33015e-10
1.31167e-10
-6.83121e-10
1.54702e-10
-7.30833e-10
1.79907e-10
-7.76182e-10
2.06755e-10
-8.19204e-10
2.35231e-10
-8.59933e-10
2.65332e-10
-8.9841e-10
2.97062e-10
-9.34685e-10
3.30437e-10
-9.6882e-10
3.65477e-10
-1.00089e-09
4.02207e-10
-1.03101e-09
4.40647e-10
-1.05929e-09
4.80808e-10
-1.0859e-09
5.22684e-10
-1.11103e-09
5.66245e-10
-1.13489e-09
-1.15773e-09
6.11419e-10
1.00683e-12
-4.76769e-11
4.09766e-12
-1.34378e-10
9.41189e-12
-2.13306e-10
1.69808e-11
-2.86218e-10
2.67451e-11
-3.5469e-10
3.86068e-11
-4.19725e-10
5.24638e-11
-4.81833e-10
6.82223e-11
-5.41243e-10
8.57991e-11
-5.98058e-10
1.05121e-10
-6.52337e-10
1.26125e-10
-7.04125e-10
1.48755e-10
-7.53462e-10
1.72965e-10
-8.00392e-10
1.98717e-10
-8.44956e-10
2.25983e-10
-8.87198e-10
2.54739e-10
-9.27167e-10
2.84973e-10
-9.64918e-10
3.16673e-10
-1.00052e-09
3.49831e-10
-1.03405e-09
3.84439e-10
-1.06562e-09
4.20478e-10
-1.09533e-09
4.57919e-10
-1.12335e-09
4.96711e-10
-1.14982e-09
5.36777e-10
-1.17495e-09
-1.19895e-09
5.77998e-10
9.51265e-13
-4.86283e-11
3.89035e-12
-1.37318e-10
8.96276e-12
-2.18379e-10
1.62053e-11
-2.93461e-10
2.5564e-11
-3.64049e-10
3.69448e-11
-4.31106e-10
5.02479e-11
-4.95136e-10
6.53799e-11
-5.56375e-10
8.22566e-11
-6.14935e-10
1.00802e-10
-6.70883e-10
1.20948e-10
-7.2427e-10
1.42633e-10
-7.75147e-10
1.65802e-10
-8.23561e-10
1.90407e-10
-8.6956e-10
2.16404e-10
-9.13195e-10
2.43757e-10
-9.54519e-10
2.72431e-10
-9.93592e-10
3.02394e-10
-1.03048e-09
3.33611e-10
-1.06527e-09
3.66044e-10
-1.09805e-09
3.99644e-10
-1.12893e-09
4.34344e-10
-1.15805e-09
4.70059e-10
-1.18554e-09
5.06671e-10
-1.21156e-09
-1.23631e-09
5.44025e-10
8.97318e-13
-4.95258e-11
3.68691e-12
-1.40107e-10
8.51877e-12
-2.23211e-10
1.54341e-11
-3.00376e-10
2.43833e-11
-3.72998e-10
3.52762e-11
-4.41998e-10
4.80149e-11
-5.07875e-10
6.25063e-11
-5.70866e-10
7.86648e-11
-6.31093e-10
9.64117e-11
-6.88629e-10
1.15674e-10
-7.43532e-10
1.36384e-10
-7.95857e-10
1.58478e-10
-8.45655e-10
1.81898e-10
-8.9298e-10
2.06589e-10
-9.37886e-10
2.32498e-10
-9.80429e-10
2.59574e-10
-1.02067e-09
2.87765e-10
-1.05867e-09
3.17013e-10
-1.09452e-09
3.47254e-10
-1.12829e-09
3.78413e-10
-1.16009e-09