/*--------------------------------*- C++ -*----------------------------------*\
  =========                 |
  \\      /  F ield         | OpenFOAM: The Open Source CFD Toolbox
   \\    /   O peration     | Website:  https://openfoam.org
    \\  /    A nd           | Version:  13
     \\/     M anipulation  |
\*---------------------------------------------------------------------------*/
FoamFile
{
    format      ascii;
    class       volScalarField;
    location    "28";
    object      p;
}
// * * * * * * * * * * * * * * * * * * * * * * * * * * * * * * * * * * * * * //

dimensions      [0 2 -2 0 0 0 0];

internalField   nonuniform List<scalar> 
6440
(
151.321
151.308
151.286
151.27
151.273
151.289
151.309
151.328
151.345
151.357
151.365
151.369
151.373
151.376
151.376
151.371
151.363
151.353
151.342
151.331
151.319
151.303
151.287
151.275
151.271
151.308
151.291
151.269
151.262
151.275
151.301
151.326
151.344
151.358
151.369
151.375
151.375
151.372
151.368
151.36
151.35
151.339
151.33
151.321
151.31
151.295
151.276
151.255
151.241
151.238
151.281
151.271
151.256
151.25
151.263
151.29
151.322
151.355
151.381
151.393
151.391
151.381
151.367
151.353
151.34
151.328
151.317
151.308
151.298
151.284
151.266
151.243
151.22
151.202
151.195
151.259
151.256
151.236
151.206
151.191
151.201
151.237
151.295
151.353
151.385
151.388
151.372
151.352
151.337
151.326
151.316
151.306
151.293
151.278
151.259
151.235
151.208
151.181
151.16
151.15
151.235
151.22
151.145
151.052
151.001
151.006
151.06
151.151
151.254
151.326
151.349
151.338
151.324
151.315
151.306
151.297
151.285
151.269
151.25
151.226
151.198
151.167
151.139
151.116
151.102
151.161
151.099
150.955
150.826
150.769
150.786
150.864
150.989
151.129
151.241
151.286
151.289
151.286
151.279
151.27
151.26
151.248
151.232
151.211
151.186
151.156
151.124
151.093
151.07
151.052
151.018
150.92
150.759
150.646
150.62
150.658
150.746
150.88
151.036
151.165
151.221
151.235
151.239
151.232
151.223
151.212
151.199
151.185
151.165
151.141
151.111
151.08
151.05
151.024
151.004
150.869
150.774
150.644
150.58
150.575
150.61
150.702
150.835
150.987
151.107
151.165
151.186
151.19
151.181
151.167
151.153
151.141
151.129
151.112
151.09
151.063
151.035
151.008
150.984
150.962
150.749
150.687
150.614
150.581
150.584
150.626
150.706
150.819
150.947
151.052
151.116
151.143
151.139
151.12
151.096
151.077
151.067
151.058
151.044
151.024
151
150.98
150.965
150.949
150.931
150.669
150.657
150.641
150.624
150.623
150.651
150.709
150.795
150.896
150.99
151.056
151.078
151.06
151.025
150.991
150.971
150.964
150.958
150.948
150.929
150.909
150.902
150.911
150.916
150.907
150.654
150.685
150.695
150.681
150.667
150.671
150.699
150.755
150.829
150.908
150.957
150.954
150.913
150.859
150.821
150.807
150.812
150.82
150.816
150.798
150.784
150.797
150.838
150.873
150.88
150.759
150.775
150.767
150.731
150.692
150.664
150.662
150.692
150.748
150.795
150.785
150.71
150.619
150.56
150.546
150.566
150.607
150.643
150.659
150.655
150.654
150.691
150.762
150.817
150.841
150.991
150.943
150.869
150.78
150.695
150.627
150.591
150.579
150.566
150.513
150.412
150.288
150.212
150.21
150.248
150.314
150.394
150.469
150.518
150.544
150.572
150.635
150.727
150.771
150.798
151.254
151.147
150.995
150.833
150.676
150.535
150.409
150.293
150.183
150.069
149.969
149.903
149.887
149.921
149.989
150.082
150.19
150.297
150.385
150.456
150.528
150.624
150.725
150.743
150.757
151.446
151.304
151.087
150.841
150.588
150.34
150.113
149.936
149.783
149.642
149.556
149.53
149.55
149.607
149.696
149.813
149.945
150.08
150.207
150.323
150.437
150.561
150.667
150.678
150.709
151.507
151.335
151.063
150.74
150.399
150.064
149.769
149.527
149.337
149.208
149.142
149.128
149.158
149.228
149.338
149.478
149.637
149.804
149.97
150.125
150.27
150.407
150.506
150.534
150.63
151.408
151.205
150.895
150.517
150.111
149.717
149.371
149.101
148.908
148.785
148.713
148.697
148.728
148.804
148.928
149.093
149.286
149.494
149.71
149.909
150.085
150.229
150.323
150.372
150.549
151.164
150.938
150.615
150.208
149.768
149.34
148.976
148.701
148.512
148.375
148.29
148.273
148.299
148.366
148.497
148.696
148.935
149.204
149.477
149.736
149.959
150.143
150.275
150.392
150.642
150.819
150.6
150.286
149.876
149.427
148.99
148.621
148.349
148.159
148.011
147.912
147.896
147.914
147.958
148.089
148.322
148.626
148.966
149.312
149.637
149.935
150.198
150.44
150.705
151.063
150.465
150.267
149.971
149.57
149.124
148.685
148.311
148.039
147.858
147.719
147.615
147.596
147.604
147.623
147.736
147.987
148.347
148.764
149.18
149.571
149.936
150.28
150.625
151.02
151.453
150.182
150.007
149.731
149.348
148.918
148.485
148.105
147.82
147.636
147.509
147.407
147.373
147.393
147.389
147.451
147.675
148.054
148.521
148.989
149.421
149.816
150.183
150.534
150.869
151.122
150.02
149.863
149.594
149.225
148.806
148.373
147.978
147.668
147.473
147.366
147.291
147.261
147.287
147.266
147.256
147.393
147.739
148.234
148.747
149.214
149.631
150.008
150.349
150.635
150.839
149.986
149.831
149.559
149.198
148.783
148.347
147.935
147.599
147.384
147.286
147.242
147.221
147.242
147.231
147.205
147.264
147.53
148.002
148.524
149.003
149.429
149.805
150.125
150.381
150.544
150.071
149.903
149.621
149.259
148.845
148.408
147.988
147.633
147.389
147.267
147.224
147.216
147.229
147.227
147.211
147.235
147.418
147.827
148.325
148.8
149.225
149.593
149.899
150.132
150.287
150.251
150.071
149.769
149.397
148.98
148.547
148.131
147.771
147.505
147.347
147.277
147.257
147.256
147.258
147.254
147.265
147.382
147.708
148.161
148.619
149.034
149.389
149.678
149.899
150.046
150.484
150.297
149.973
149.588
149.173
148.746
148.339
147.982
147.702
147.514
147.406
147.353
147.332
147.327
147.324
147.324
147.388
147.635
148.035
148.465
148.862
149.2
149.473
149.679
149.821
150.706
150.538
150.204
149.812
149.398
148.982
148.585
148.231
147.942
147.727
147.582
147.495
147.446
147.425
147.413
147.397
147.424
147.604
147.947
148.342
148.712
149.029
149.283
149.475
149.607
150.845
150.742
150.433
150.044
149.639
149.233
148.844
148.493
148.194
147.958
147.786
147.664
147.59
147.546
147.516
147.482
147.481
147.607
147.897
148.25
148.588
148.878
149.111
149.284
149.405
150.881
150.855
150.627
150.272
149.881
149.485
149.103
148.752
148.446
148.194
147.997
147.854
147.754
147.687
147.634
147.581
147.556
147.64
147.878
148.186
148.488
148.748
148.955
149.109
149.213
150.875
150.891
150.772
150.481
150.115
149.729
149.351
149
148.688
148.425
148.215
148.049
147.931
147.843
147.771
147.699
147.653
147.702
147.89
148.151
148.413
148.639
148.817
148.946
149.032
150.864
150.891
150.854
150.653
150.327
149.956
149.584
149.233
148.918
148.649
148.425
148.25
148.114
148.011
147.924
147.838
147.775
147.792
147.932
148.144
148.361
148.551
148.696
148.798
148.861
150.84
150.863
150.867
150.752
150.494
150.154
149.792
149.444
149.13
148.858
148.632
148.445
148.305
148.195
148.094
147.999
147.922
147.912
148.003
148.164
148.334
148.483
148.593
148.665
148.701
150.803
150.812
150.823
150.764
150.587
150.297
149.96
149.624
149.318
149.052
148.825
148.641
148.501
148.392
148.279
148.18
148.095
148.057
148.101
148.211
148.332
148.436
148.507
148.545
148.553
150.76
150.758
150.746
150.709
150.592
150.367
150.071
149.762
149.475
149.224
149.011
148.833
148.696
148.593
148.478
148.374
148.288
148.221
148.218
148.28
148.355
148.409
148.437
148.44
148.417
150.714
150.701
150.663
150.615
150.531
150.36
150.115
149.847
149.594
149.372
149.18
149.023
148.896
148.791
148.689
148.578
148.5
148.401
148.352
148.368
148.392
148.394
148.38
148.347
148.295
150.657
150.632
150.574
150.51
150.425
150.289
150.092
149.875
149.673
149.495
149.338
149.205
149.097
148.997
148.906
148.79
148.719
148.586
148.496
148.462
148.433
148.388
148.334
148.267
148.184
150.587
150.546
150.472
150.398
150.306
150.179
150.019
149.857
149.716
149.59
149.474
149.374
149.292
149.218
149.128
149.025
148.935
148.77
148.636
148.553
148.474
148.388
148.298
148.198
148.086
150.502
150.448
150.368
150.298
150.198
150.064
149.925
149.809
149.724
149.653
149.588
149.535
149.491
149.443
149.36
149.279
149.146
148.945
148.768
148.639
148.516
148.394
148.269
148.14
148
150.415
150.355
150.284
150.224
150.127
149.978
149.836
149.745
149.704
149.694
149.693
149.692
149.688
149.656
149.592
149.527
149.344
149.101
148.887
148.715
148.555
148.4
148.246
148.089
147.925
150.335
150.281
150.231
150.194
150.101
149.937
149.775
149.69
149.689
149.74
149.802
149.85
149.867
149.845
149.8
149.732
149.502
149.223
148.975
148.774
148.585
148.404
148.225
148.045
147.859
150.268
150.225
150.204
150.187
150.097
149.919
149.748
149.675
149.716
149.816
149.921
149.989
150.013
150.005
149.979
149.853
149.594
149.296
149.036
148.814
148.605
148.404
148.206
148.007
147.804
150.198
150.166
150.169
150.171
150.085
149.91
149.746
149.704
149.781
149.906
150.023
150.096
150.115
150.116
150.089
149.903
149.63
149.335
149.072
148.837
148.614
148.399
148.187
147.973
147.756
150.114
150.089
150.103
150.111
150.041
149.887
149.764
149.762
149.864
149.998
150.106
150.156
150.175
150.18
150.094
149.894
149.626
149.34
149.082
148.843
148.613
148.389
148.167
147.944
147.715
150.006
149.98
149.99
149.999
149.941
149.833
149.773
149.818
149.939
150.062
150.148
150.192
150.209
150.179
150.065
149.857
149.588
149.32
149.072
148.834
148.602
148.373
148.146
147.916
147.68
149.887
149.847
149.835
149.826
149.792
149.748
149.76
149.848
149.974
150.086
150.168
150.21
150.21
150.155
150.012
149.783
149.525
149.281
149.045
148.813
148.582
148.353
148.123
147.89
147.65
149.746
149.684
149.642
149.619
149.605
149.63
149.713
149.838
149.97
150.084
150.161
150.195
150.167
150.069
149.897
149.675
149.45
149.229
149.005
148.781
148.555
148.329
148.1
147.865
147.625
149.583
149.505
149.439
149.395
149.405
149.487
149.631
149.79
149.932
150.039
150.103
150.107
150.045
149.927
149.76
149.569
149.372
149.167
148.956
148.741
148.522
148.3
148.074
147.843
147.603
149.406
149.326
149.245
149.192
149.217
149.344
149.531
149.707
149.845
149.942
149.987
149.966
149.898
149.785
149.633
149.468
149.289
149.099
148.9
148.695
148.485
148.27
148.049
147.821
147.585
149.24
149.17
149.092
149.032
149.064
149.219
149.426
149.602
149.735
149.823
149.846
149.822
149.756
149.645
149.514
149.367
149.204
149.028
148.841
148.647
148.445
148.238
148.023
147.801
147.57
149.117
149.058
148.998
148.942
148.971
149.123
149.326
149.498
149.625
149.694
149.708
149.679
149.611
149.518
149.403
149.269
149.119
148.956
148.781
148.597
148.405
148.205
147.998
147.782
147.558
149.054
149.005
148.967
148.93
148.95
149.067
149.245
149.404
149.515
149.568
149.574
149.541
149.484
149.402
149.299
149.176
149.038
148.886
148.722
148.548
148.364
148.173
147.973
147.766
147.548
149.071
149.022
149.001
148.994
149.001
149.056
149.197
149.33
149.416
149.455
149.456
149.427
149.374
149.299
149.204
149.091
148.962
148.819
148.665
148.5
148.325
148.142
147.951
147.75
147.541
149.161
149.119
149.107
149.116
149.103
149.098
149.189
149.282
149.341
149.367
149.361
149.332
149.28
149.209
149.119
149.013
148.891
148.757
148.611
148.455
148.289
148.114
147.93
147.738
147.536
149.291
149.26
149.253
149.26
149.226
149.178
149.213
149.263
149.294
149.301
149.288
149.253
149.2
149.13
149.044
148.942
148.827
148.7
148.562
148.413
148.255
148.087
147.912
147.727
147.535
149.411
149.397
149.391
149.394
149.338
149.267
149.253
149.265
149.267
149.256
149.23
149.189
149.132
149.062
148.978
148.88
148.77
148.649
148.516
148.375
148.224
148.064
147.896
147.72
147.535
149.491
149.49
149.491
149.49
149.425
149.342
149.296
149.275
149.251
149.222
149.184
149.136
149.076
149.004
148.921
148.826
148.719
148.603
148.476
148.34
148.196
148.044
147.883
147.714
147.538
149.529
149.534
149.54
149.54
149.477
149.393
149.329
149.283
149.239
149.195
149.148
149.093
149.029
148.955
148.871
148.778
148.675
148.562
148.44
148.31
148.172
148.026
147.872
147.712
147.543
149.536
149.542
149.552
149.555
149.502
149.419
149.349
149.286
149.228
149.174
149.118
149.056
148.988
148.913
148.829
148.737
148.636
148.527
148.409
148.284
148.151
148.011
147.865
147.711
147.55
149.527
149.53
149.543
149.55
149.508
149.421
149.354
149.283
149.216
149.154
149.091
149.025
148.954
148.876
148.792
148.701
148.602
148.496
148.382
148.261
148.134
148
147.859
147.712
147.559
149.517
149.515
149.525
149.533
149.496
149.404
149.34
149.271
149.201
149.134
149.067
148.997
148.923
148.845
148.76
148.67
148.572
148.469
148.358
148.242
148.119
147.99
147.856
147.715
147.569
149.507
149.505
149.511
149.514
149.466
149.385
149.321
149.253
149.183
149.114
149.044
148.972
148.896
148.816
148.732
148.642
148.547
148.445
148.338
148.225
148.107
147.983
147.854
147.72
147.581
149.497
149.498
149.504
149.498
149.434
149.37
149.303
149.233
149.164
149.093
149.022
148.948
148.871
148.791
148.707
148.618
148.524
148.425
148.321
148.211
148.097
147.978
147.855
147.726
147.594
149.489
149.493
149.496
149.48
149.403
149.349
149.282
149.213
149.143
149.072
149
148.925
148.848
148.768
148.684
148.596
148.504
148.407
148.305
148.2
148.09
147.975
147.857
147.734
147.607
149.483
149.489
149.488
149.452
149.378
149.325
149.261
149.192
149.122
149.051
148.979
148.904
148.826
148.746
148.663
148.576
148.485
148.391
148.292
148.19
148.084
147.974
147.86
147.742
147.621
149.476
149.483
149.479
149.424
149.363
149.304
149.239
149.172
149.102
149.031
148.958
148.883
148.806
148.726
148.644
148.558
148.469
148.377
148.281
148.182
148.079
147.973
147.864
147.752
147.636
149.467
149.474
149.468
149.397
149.347
149.284
149.218
149.151
149.081
149.01
148.937
148.862
148.786
148.707
148.625
148.541
148.454
148.364
148.271
148.175
148.076
147.973
147.869
147.761
147.651
149.455
149.464
149.447
149.37
149.323
149.262
149.196
149.129
149.061
148.99
148.917
148.843
148.767
148.689
148.608
148.526
148.44
148.352
148.262
148.169
148.073
147.975
147.874
147.771
147.665
149.442
149.452
149.418
149.349
149.299
149.24
149.175
149.108
149.04
148.969
148.897
148.823
148.748
148.671
148.592
148.511
148.427
148.342
148.254
148.163
148.071
147.976
147.88
147.781
147.68
149.431
149.444
149.392
149.339
149.279
149.218
149.154
149.087
149.019
148.948
148.877
148.804
148.729
148.653
148.576
148.496
148.415
148.331
148.246
148.159
148.07
147.978
147.886
147.791
147.695
149.426
149.44
149.369
149.326
149.26
149.196
149.133
149.066
148.997
148.927
148.856
148.784
148.711
148.636
148.56
148.482
148.403
148.322
148.239
148.154
148.068
147.981
147.892
147.801
147.709
149.43
149.438
149.347
149.306
149.24
149.174
149.11
149.043
148.975
148.906
148.836
148.765
148.692
148.619
148.545
148.469
148.391
148.313
148.232
148.151
148.067
147.983
147.897
147.811
147.723
149.438
149.43
149.329
149.284
149.218
149.151
149.086
149.02
148.952
148.884
148.814
148.744
148.674
148.602
148.529
148.455
148.38
148.303
148.226
148.147
148.067
147.985
147.903
147.82
147.736
149.442
149.416
149.315
149.26
149.193
149.126
149.061
148.995
148.928
148.86
148.792
148.724
148.655
148.585
148.514
148.442
148.369
148.294
148.219
148.143
148.066
147.988
147.909
147.829
147.748
149.432
149.392
149.298
149.232
149.166
149.099
149.033
148.968
148.902
148.836
148.77
148.703
148.635
148.567
148.498
148.428
148.357
148.285
148.213
148.139
148.065
147.99
147.914
147.837
147.76
149.409
149.355
149.271
149.2
149.134
149.068
149.004
148.94
148.875
148.811
148.746
148.681
148.615
148.549
148.482
148.414
148.346
148.276
148.206
148.135
148.064
147.991
147.919
147.845
147.772
149.37
149.305
149.233
149.162
149.098
149.034
148.972
148.91
148.847
148.785
148.722
148.659
148.595
148.531
148.466
148.401
148.334
148.267
148.2
148.131
148.062
147.993
147.923
147.853
147.783
149.313
149.245
149.185
149.119
149.058
148.997
148.938
148.878
148.818
148.758
148.697
148.636
148.575
148.513
148.45
148.387
148.323
148.258
148.193
148.127
148.061
147.994
147.927
147.86
147.793
149.243
149.182
149.131
149.071
149.015
148.959
148.902
148.845
148.788
148.731
148.672
148.614
148.555
148.495
148.434
148.373
148.312
148.249
148.187
148.123
148.06
147.996
147.931
147.867
147.802
149.169
149.118
149.074
149.021
148.97
148.918
148.866
148.812
148.758
148.703
148.647
148.591
148.534
148.477
148.418
148.36
148.3
148.24
148.18
148.119
148.058
147.996
147.935
147.873
147.811
149.097
149.055
149.017
148.971
148.925
148.877
148.828
148.778
148.727
148.675
148.621
148.568
148.513
148.458
148.402
148.346
148.289
148.231
148.173
148.115
148.056
147.997
147.938
147.878
147.819
149.028
148.994
148.962
148.921
148.88
148.837
148.791
148.744
148.696
148.647
148.596
148.545
148.493
148.44
148.387
148.332
148.278
148.222
148.166
148.11
148.054
147.997
147.94
147.883
147.827
148.964
148.936
148.909
148.873
148.837
148.797
148.755
148.711
148.666
148.619
148.571
148.522
148.473
148.422
148.371
148.319
148.266
148.213
148.16
148.106
148.051
147.997
147.943
147.888
147.834
148.906
148.882
148.859
148.828
148.795
148.759
148.72
148.679
148.637
148.592
148.547
148.5
148.453
148.405
148.356
148.306
148.256
148.204
148.153
148.101
148.049
147.997
147.945
147.892
147.84
148.853
148.833
148.813
148.785
148.756
148.723
148.687
148.649
148.609
148.567
148.524
148.48
148.435
148.388
148.341
148.294
148.245
148.196
148.147
148.097
148.047
147.997
147.947
147.896
147.846
148.804
148.787
148.771
148.746
148.72
148.689
148.656
148.62
148.583
148.543
148.502
148.46
148.417
148.373
148.328
148.282
148.236
148.188
148.141
148.093
148.045
147.997
147.948
147.9
147.852
148.761
148.746
148.732
148.709
148.686
148.658
148.627
148.594
148.558
148.521
148.482
148.442
148.401
148.358
148.315
148.271
148.226
148.181
148.135
148.089
148.043
147.997
147.95
147.904
147.858
148.722
148.709
148.696
148.676
148.655
148.628
148.6
148.568
148.535
148.5
148.463
148.424
148.385
148.345
148.303
148.261
148.218
148.174
148.13
148.086
148.041
147.997
147.952
147.907
147.863
148.687
148.675
148.664
148.646
148.626
148.601
148.575
148.545
148.513
148.48
148.444
148.408
148.37
148.332
148.292
148.251
148.21
148.168
148.125
148.083
148.04
147.997
147.954
147.91
147.867
148.655
148.645
148.635
148.618
148.6
148.576
148.551
148.523
148.493
148.461
148.427
148.392
148.356
148.319
148.281
148.242
148.202
148.162
148.121
148.079
148.038
147.996
147.955
147.913
147.871
148.628
148.619
148.609
148.593
148.575
148.553
148.529
148.502
148.474
148.443
148.411
148.378
148.343
148.307
148.271
148.233
148.195
148.156
148.116
148.076
148.036
147.996
147.955
147.914
147.874
148.604
148.595
148.587
148.571
148.554
148.533
148.51
148.484
148.456
148.427
148.396
148.364
148.331
148.297
148.261
148.225
148.188
148.15
148.111
148.073
148.034
147.995
147.955
147.916
147.877
148.584
148.576
148.568
148.552
148.536
148.515
148.493
148.468
148.442
148.413
148.383
148.352
148.32
148.287
148.252
148.217
148.181
148.144
148.107
148.07
148.032
147.994
147.956
147.917
147.879
148.568
148.56
148.553
148.537
148.521
148.501
148.479
148.455
148.429
148.401
148.372
148.342
148.311
148.278
148.245
148.211
148.176
148.14
148.104
148.067
148.03
147.993
147.956
147.918
147.881
148.557
148.549
148.542
148.526
148.51
148.49
148.469
148.445
148.419
148.392
148.364
148.334
148.303
148.272
148.239
148.205
148.171
148.136
148.101
148.065
148.029
147.992
147.956
147.919
147.883
148.551
148.542
148.534
148.518
148.502
148.482
148.461
148.437
148.412
148.385
148.357
148.328
148.297
148.266
148.234
148.201
148.167
148.133
148.098
148.063
148.028
147.992
147.956
147.92
147.885
148.549
148.539
148.531
148.514
148.498
148.477
148.455
148.432
148.406
148.38
148.352
148.323
148.293
148.262
148.23
148.198
148.165
148.131
148.097
148.062
148.027
147.992
147.957
147.922
147.887
148.55
148.539
148.532
148.513
148.496
148.475
148.452
148.428
148.403
148.376
148.349
148.32
148.29
148.259
148.228
148.195
148.163
148.129
148.095
148.061
148.027
147.992
147.957
147.923
147.889
148.558
148.544
148.537
148.517
148.496
148.474
148.451
148.426
148.401
148.374
148.346
148.318
148.288
148.257
148.226
148.194
148.161
148.128
148.095
148.061
148.027
147.993
147.958
147.924
147.89
148.598
148.564
148.548
148.523
148.499
148.475
148.45
148.425
148.399
148.373
148.345
148.316
148.287
148.256
148.225
148.193
148.161
148.128
148.094
148.061
148.027
147.993
147.959
147.925
147.892
148.674
148.596
148.555
148.526
148.5
148.475
148.45
148.425
148.399
148.372
148.344
148.316
148.286
148.256
148.225
148.193
148.161
148.128
148.094
148.061
148.027
147.993
147.959
147.926
147.892
151.213
151.215
151.218
151.217
151.211
151.203
151.193
151.184
151.177
151.172
151.169
151.166
151.162
151.155
151.146
151.132
151.112
151.088
151.067
151.06
151.071
151.094
151.114
151.123
151.125
151.209
151.21
151.212
151.211
151.206
151.198
151.188
151.181
151.176
151.174
151.175
151.176
151.176
151.174
151.168
151.154
151.131
151.1
151.069
151.049
151.051
151.073
151.101
151.118
151.122
151.206
151.206
151.205
151.2
151.192
151.18
151.168
151.16
151.158
151.162
151.171
151.18
151.184
151.182
151.172
151.156
151.13
151.097
151.063
151.04
151.037
151.054
151.082
151.103
151.11
151.205
151.204
151.2
151.191
151.176
151.158
151.142
151.134
151.136
151.146
151.158
151.167
151.167
151.158
151.145
151.129
151.11
151.087
151.061
151.041
151.039
151.054
151.077
151.093
151.099
151.203
151.202
151.197
151.184
151.164
151.142
151.126
151.12
151.124
151.133
151.141
151.139
151.127
151.11
151.092
151.076
151.063
151.054
151.049
151.047
151.053
151.07
151.087
151.096
151.098
151.195
151.195
151.19
151.177
151.157
151.138
151.128
151.126
151.128
151.132
151.126
151.11
151.086
151.059
151.033
151.014
151.001
150.998
151.006
151.023
151.048
151.078
151.099
151.105
151.102
151.174
151.175
151.171
151.163
151.15
151.141
151.142
151.148
151.151
151.146
151.126
151.095
151.059
151.02
150.984
150.956
150.939
150.935
150.945
150.972
151.011
151.054
151.092
151.107
151.103
151.136
151.138
151.136
151.136
151.136
151.144
151.162
151.18
151.189
151.179
151.148
151.104
151.055
151.004
150.955
150.917
150.893
150.885
150.893
150.919
150.96
151.01
151.058
151.093
151.099
151.078
151.085
151.086
151.094
151.111
151.137
151.173
151.21
151.232
151.227
151.192
151.137
151.075
151.013
150.954
150.906
150.877
150.867
150.871
150.892
150.928
150.974
151.022
151.066
151.085
151.006
151.017
151.022
151.039
151.074
151.119
151.17
151.222
151.26
151.271
151.245
151.189
151.119
151.048
150.982
150.926
150.889
150.873
150.876
150.894
150.926
150.966
151.008
151.045
151.068
150.926
150.94
150.948
150.971
151.023
151.087
151.151
151.21
151.259
151.287
151.281
151.236
151.168
151.093
151.023
150.964
150.922
150.9
150.899
150.916
150.946
150.984
151.022
151.052
151.071
150.851
150.862
150.869
150.895
150.961
151.042
151.117
151.182
151.236
151.274
151.285
151.259
151.2
151.128
151.057
150.997
150.956
150.935
150.934
150.952
150.983
151.022
151.059
151.087
151.104
150.794
150.799
150.798
150.822
150.893
150.986
151.072
151.144
151.199
151.239
151.259
151.249
151.208
151.147
151.081
151.024
150.985
150.968
150.971
150.992
151.027
151.069
151.111
151.143
151.161
150.772
150.766
150.754
150.767
150.829
150.927
151.022
151.095
151.15
151.187
151.208
151.21
151.188
151.143
151.09
151.041
151.008
150.994
151.001
151.027
151.067
151.115
151.164
151.205
151.23
150.796
150.779
150.747
150.735
150.776
150.872
150.967
151.04
151.09
151.124
151.143
151.148
151.138
151.11
151.071
151.034
151.009
151.001
151.014
151.045
151.091
151.146
151.204
151.253
151.287
150.864
150.836
150.78
150.726
150.736
150.821
150.91
150.977
151.023
151.052
151.068
151.072
151.066
151.049
151.023
150.996
150.978
150.977
150.994
151.031
151.085
151.15
151.216
151.274
151.311
150.956
150.92
150.848
150.733
150.713
150.777
150.85
150.907
150.947
150.972
150.984
150.985
150.979
150.967
150.95
150.931
150.917
150.916
150.935
150.975
151.036
151.11
151.188
151.257
151.299
151.05
151.016
150.924
150.762
150.71
150.741
150.787
150.827
150.858
150.879
150.889
150.888
150.881
150.87
150.856
150.841
150.828
150.823
150.838
150.878
150.939
151.017
151.101
151.184
151.24
151.106
151.099
150.966
150.788
150.706
150.698
150.713
150.732
150.751
150.766
150.773
150.774
150.767
150.757
150.745
150.731
150.716
150.705
150.712
150.74
150.794
150.866
150.946
151.028
151.098
151.031
151.053
150.935
150.777
150.675
150.634
150.624
150.624
150.628
150.633
150.638
150.636
150.63
150.621
150.609
150.596
150.578
150.56
150.55
150.562
150.595
150.649
150.713
150.781
150.847
151.023
150.917
150.832
150.71
150.612
150.563
150.542
150.528
150.517
150.509
150.503
150.496
150.484
150.47
150.453
150.436
150.414
150.386
150.359
150.34
150.342
150.364
150.397
150.433
150.479
150.83
150.731
150.665
150.586
150.51
150.46
150.43
150.405
150.382
150.361
150.344
150.327
150.309
150.286
150.259
150.23
150.196
150.155
150.106
150.06
150.023
150
149.989
149.985
150.003
150.581
150.541
150.499
150.448
150.39
150.339
150.3
150.265
150.231
150.199
150.168
150.14
150.109
150.075
150.035
149.991
149.939
149.874
149.796
149.706
149.618
149.538
149.469
149.411
149.385
150.352
150.351
150.326
150.288
150.239
150.19
150.144
150.101
150.058
150.013
149.968
149.921
149.872
149.818
149.758
149.692
149.614
149.519
149.399
149.258
149.102
148.946
148.8
148.681
148.621
150.123
150.144
150.135
150.107
150.065
150.017
149.967
149.915
149.86
149.801
149.736
149.668
149.592
149.508
149.415
149.309
149.186
149.04
148.864
148.651
148.41
148.153
147.899
147.676
147.511
149.903
149.936
149.936
149.913
149.874
149.824
149.767
149.704
149.634
149.556
149.47
149.372
149.263
149.139
148.998
148.833
148.639
148.408
148.131
147.807
147.435
147.029
146.611
146.236
145.984
149.688
149.724
149.728
149.706
149.666
149.611
149.544
149.467
149.378
149.278
149.162
149.031
148.88
148.705
148.501
148.259
147.967
147.61
147.178
146.662
146.063
145.389
144.651
143.917
143.194
149.479
149.512
149.513
149.489
149.442
149.378
149.299
149.204
149.094
148.966
148.819
148.646
148.445
148.207
147.925
147.586
147.168
146.646
145.992
145.185
144.202
143.047
141.69
140.284
138.711
149.275
149.3
149.294
149.262
149.206
149.129
149.034
148.918
148.783
148.624
148.438
148.219
147.959
147.647
147.27
146.811
146.239
145.513
144.576
143.365
141.792
139.784
137.057
133.72
127.899
149.078
149.09
149.072
149.028
148.959
148.866
148.751
148.612
148.447
148.252
148.022
147.747
147.419
147.02
146.531
145.924
145.161
144.184
142.897
141.183
138.805
135.593
130.539
124.782
106.64
148.888
148.883
148.85
148.79
148.703
148.591
148.453
148.287
148.089
147.854
147.574
147.239
146.833
146.337
145.721
144.948
143.961
142.681
140.973
138.647
135.237
130.282
120.623
104.687
47.66
148.706
148.682
148.629
148.55
148.444
148.309
148.146
147.949
147.715
147.436
147.104
146.702
146.215
145.614
144.866
143.921
142.704
141.111
138.967
136.021
131.712
125.324
114.414
96.8244
67.917
148.533
148.487
148.413
148.312
148.183
148.024
147.833
147.604
147.332
147.008
146.619
146.151
145.579
144.872
143.99
142.872
141.434
139.551
137.037
133.608
128.81
121.97
112.185
97.7567
80.4666
148.371
148.3
148.204
148.08
147.926
147.742
147.521
147.259
146.948
146.578
146.135
145.598
144.943
144.133
143.122
141.842
140.2
138.062
135.237
131.451
126.318
119.282
109.7
96.4173
79.5359
148.221
148.125
148.004
147.855
147.677
147.466
147.216
146.921
146.572
146.157
145.659
145.059
144.325
143.42
142.29
140.865
139.044
136.688
133.606
129.531
124.107
116.85
107.201
94.4291
78.4119
148.083
147.961
147.815
147.643
147.44
147.202
146.924
146.597
146.211
145.754
145.208
144.548
143.744
142.754
141.522
139.973
138.002
135.467
132.174
127.864
122.194
114.724
104.974
92.4002
76.895
147.958
147.811
147.642
147.446
147.219
146.956
146.651
146.294
145.875
145.38
144.789
144.079
143.216
142.156
140.842
139.194
137.106
134.433
130.978
126.479
120.589
112.859
102.802
89.8257
73.8997
147.847
147.676
147.484
147.266
147.016
146.731
146.401
146.018
145.57
145.042
144.416
143.665
142.756
141.644
140.269
138.553
136.384
133.618
130.049
125.411
119.329
111.313
100.808
86.9308
69.7608
147.748
147.556
147.343
147.105
146.836
146.529
146.178
145.773
145.301
144.749
144.095
143.316
142.376
141.231
139.822
138.07
135.863
133.054
129.423
124.697
118.418
110.092
98.9237
83.6509
64.4523
147.663
147.452
147.221
146.965
146.678
146.354
145.986
145.563
145.074
144.504
143.833
143.037
142.082
140.927
139.512
137.762
135.567
132.78
129.169
124.439
117.988
109.299
96.657
79.0822
55.0928
147.59
147.363
147.116
146.845
146.544
146.207
145.825
145.39
144.89
144.31
143.632
142.832
141.881
140.736
139.346
137.639
135.515
132.833
129.376
124.842
118.565
109.894
95.7533
75.6269
38.3513
147.529
147.288
147.029
146.746
146.434
146.087
145.697
145.255
144.75
144.168
143.493
142.703
141.769
140.657
139.32
137.694
135.695
133.205
130.046
125.966
120.471
112.961
100.82
83.0895
34.2138
147.478
147.227
146.958
146.667
146.348
145.995
145.6
145.156
144.653
144.077
143.413
142.643
141.743
140.681
139.418
137.905
136.073
133.832
131.059
127.581
123.13
117.38
109.551
100.007
80.8722
147.436
147.178
146.903
146.607
146.284
145.928
145.534
145.093
144.596
144.032
143.388
142.649
141.792
140.794
139.622
138.24
136.597
134.633
132.269
129.406
125.918
121.665
116.456
110.311
102.696
147.402
147.14
146.862
146.564
146.24
145.886
145.495
145.061
144.576
144.03
143.413
142.709
141.905
140.979
139.908
138.665
137.217
135.527
133.551
131.247
128.575
125.527
122.158
118.741
115.841
147.375
147.112
146.834
146.536
146.214
145.865
145.481
145.058
144.589
144.065
143.478
142.817
142.069
141.219
140.252
139.148
137.888
136.451
134.821
132.985
130.949
128.75
126.49
124.397
122.844
147.354
147.093
146.817
146.522
146.205
145.863
145.489
145.08
144.63
144.132
143.578
142.962
142.272
141.5
140.633
139.661
138.574
137.363
136.025
134.568
133.015
131.419
129.881
128.574
127.723
147.339
147.081
146.809
146.52
146.21
145.877
145.516
145.123
144.694
144.223
143.705
143.134
142.503
141.806
141.034
140.184
139.25
138.233
137.137
135.978
134.785
133.607
132.526
131.654
131.121
147.329
147.076
146.81
146.528
146.227
145.905
145.558
145.184
144.777
144.335
143.853
143.327
142.752
142.125
141.442
140.7
139.9
139.046