/*--------------------------------*- C++ -*----------------------------------*\
  =========                 |
  \\      /  F ield         | OpenFOAM: The Open Source CFD Toolbox
   \\    /   O peration     | Website:  https://openfoam.org
    \\  /    A nd           | Version:  13
     \\/     M anipulation  |
\*---------------------------------------------------------------------------*/
FoamFile
{
    format      ascii;
    class       volScalarField;
    location    "28";
    object      p;
}
// * * * * * * * * * * * * * * * * * * * * * * * * * * * * * * * * * * * * * //

dimensions      [0 2 -2 0 0 0 0];

internalField   nonuniform List<scalar> 
6440
(
0.0020004
0.00200089
0.00200193
0.00200348
0.00200554
0.00200801
0.00201079
0.00201372
0.00201667
0.00201948
0.002022
0.00202407
0.00202556
0.00202637
0.0020264
0.00202566
0.00202414
0.00202193
0.00201913
0.00201587
0.00201228
0.00200849
0.00200467
0.00200095
0.00199775
0.00199776
0.00199823
0.00199922
0.00200072
0.00200269
0.00200508
0.00200779
0.00201071
0.00201369
0.00201661
0.00201931
0.00202163
0.00202342
0.00202454
0.00202486
0.0020243
0.00202282
0.00202045
0.00201727
0.00201324
0.00200852
0.00200322
0.00199759
0.00199189
0.00198667
0.00199373
0.00199427
0.00199533
0.00199693
0.00199904
0.00200159
0.00200451
0.00200772
0.00201105
0.00201436
0.00201748
0.00202024
0.00202245
0.00202393
0.00202452
0.00202408
0.00202255
0.00201989
0.00201606
0.00201102
0.00200494
0.00199797
0.00199044
0.00198287
0.00197612
0.00198855
0.0019892
0.00199041
0.00199223
0.00199462
0.00199751
0.00200081
0.00200445
0.00200829
0.00201214
0.00201582
0.00201914
0.00202188
0.00202384
0.0020248
0.00202459
0.00202308
0.00202018
0.00201574
0.00200975
0.00200237
0.00199379
0.00198441
0.00197504
0.00196685
0.00198215
0.00198291
0.00198432
0.00198641
0.00198914
0.00199244
0.00199621
0.00200035
0.00200477
0.00200924
0.00201357
0.00201756
0.00202097
0.00202355
0.00202505
0.00202525
0.00202395
0.00202101
0.00201622
0.00200947
0.00200097
0.00199091
0.00197977
0.00196856
0.00195886
0.00197443
0.00197532
0.00197693
0.00197931
0.00198242
0.00198616
0.00199044
0.00199514
0.00200015
0.00200531
0.00201036
0.0020151
0.00201928
0.00202262
0.00202484
0.00202565
0.0020248
0.00202207
0.00201723
0.00201
0.00200059
0.00198921
0.00197636
0.00196331
0.00195204
0.00196534
0.00196635
0.00196818
0.00197087
0.00197437
0.00197859
0.00198341
0.00198871
0.00199435
0.00200022
0.00200604
0.00201158
0.0020166
0.00202081
0.00202389
0.0020255
0.00202533
0.00202308
0.00201848
0.00201107
0.00200101
0.00198847
0.00197398
0.00195905
0.00194615
0.00195484
0.00195598
0.00195802
0.00196104
0.00196496
0.00196969
0.00197509
0.00198103
0.00198735
0.00199393
0.00200053
0.00200691
0.00201281
0.00201794
0.00202199
0.00202456
0.00202528
0.00202377
0.00201967
0.00201249
0.00200202
0.0019885
0.00197245
0.00195564
0.00194105
0.00194292
0.00194418
0.00194645
0.0019498
0.00195415
0.0019594
0.0019654
0.00197201
0.00197906
0.00198637
0.00199379
0.00200101
0.00200781
0.00201391
0.00201897
0.00202262
0.00202442
0.00202389
0.00202057
0.00201396
0.00200341
0.00198914
0.00197163
0.00195292
0.00193657
0.00192962
0.00193099
0.00193347
0.00193714
0.00194191
0.00194768
0.0019543
0.00196161
0.00196942
0.00197753
0.00198577
0.00199386
0.00200156
0.00200862
0.00201473
0.00201951
0.00202251
0.00202318
0.00202093
0.00201517
0.00200499
0.00199026
0.00197145
0.00195084
0.00193264
0.00191496
0.00191642
0.0019191
0.00192306
0.00192823
0.0019345
0.00194172
0.00194972
0.00195832
0.00196729
0.0019764
0.00198538
0.00199399
0.00200201
0.00200916
0.00201509
0.00201936
0.00202138
0.00202046
0.00201583
0.00200657
0.00199173
0.00197184
0.00194934
0.00192919
0.00189903
0.00190056
0.00190339
0.00190759
0.0019131
0.0019198
0.00192757
0.00193624
0.00194561
0.00195545
0.00196548
0.0019754
0.00198499
0.001994
0.0020022
0.00200926
0.0020148
0.00201826
0.00201888
0.00201575
0.00200777
0.00199337
0.00197274
0.00194841
0.00192618
0.00188194
0.0018835
0.00188643
0.0018908
0.00189655
0.00190358
0.0019118
0.00192103
0.00193109
0.00194175
0.00195272
0.00196365
0.0019743
0.00198441
0.00199371
0.00200193
0.00200874
0.00201364
0.00201592
0.00201455
0.00200819
0.00199509
0.00197409
0.00194801
0.00192345
0.00186384
0.0018654
0.00186835
0.00187278
0.00187864
0.00188586
0.00189433
0.00190394
0.00191453
0.00192588
0.00193772
0.00194969
0.0019615
0.00197284
0.0019834
0.0019929
0.00200103
0.00200739
0.00201138
0.002012
0.00200774
0.00199652
0.00197585
0.00194838
0.00192145
0.00184493
0.00184644
0.00184934
0.00185371
0.00185951
0.0018667
0.00187519
0.00188491
0.00189573
0.00190748
0.00191998
0.00193286
0.00194584
0.00195856
0.00197064
0.00198167
0.00199132
0.00199928
0.0020051
0.00200789
0.00200612
0.00199734
0.0019783
0.00194998
0.00192059
0.00182546
0.00182687
0.00182963
0.0018338
0.00183936
0.00184627
0.00185449
0.00186395
0.00187458
0.00188629
0.00189899
0.0019124
0.00192629
0.00194033
0.00195408
0.00196703
0.00197871
0.00198875
0.00199676
0.00200209
0.00200327
0.00199773
0.00198152
0.00195345
0.00192185
0.0018057
0.00180697
0.00180949
0.00181333
0.00181845
0.00182484
0.00183243
0.00184121
0.00185113
0.00186215
0.00187428
0.00188763
0.0019018
0.00191662
0.00193175
0.0019467
0.00196094
0.00197398
0.00198524
0.00199397
0.00199892
0.00199775
0.00198593
0.00196042
0.00192749
0.001786
0.00178708
0.00178926
0.00179263
0.00179715
0.00180273
0.00180935
0.00181701
0.00182568
0.00183537
0.00184608
0.00185809
0.00187158
0.00188618
0.00190168
0.00191786
0.00193436
0.00195076
0.00196642
0.00198041
0.00199131
0.00199673
0.00199231
0.00197485
0.00194444
0.00176677
0.00176763
0.0017694
0.00177215
0.0017759
0.00178043
0.00178576
0.00179189
0.00179883
0.00180659
0.0018153
0.00182519
0.0018364
0.00184917
0.00186356
0.00187917
0.00189626
0.00191483
0.00193456
0.00195489
0.00197474
0.00199189
0.002002
0.00200278
0.00198468
0.00174832
0.00174896
0.0017503
0.00175241
0.00175531
0.00175869
0.00176261
0.0017671
0.00177218
0.00177788
0.00178438
0.00179182
0.00180034
0.00181011
0.00182132
0.00183457
0.00185006
0.00186804
0.00188866
0.00191233
0.00193958
0.00197085
0.00200585
0.0020452
0.00207412
0.00173086
0.00173137
0.00173241
0.00173405
0.00173624
0.00173889
0.00174198
0.00174552
0.00174951
0.00175404
0.00175921
0.00176517
0.00177206
0.00178005
0.00178942
0.00180054
0.00181374
0.0018295
0.00184873
0.00187242
0.0019019
0.00193983
0.00199356
0.00208524
0.00226956
0.00171369
0.00171415
0.00171508
0.00171654
0.00171851
0.00172094
0.0017238
0.0017271
0.00173087
0.00173517
0.0017401
0.00174578
0.00175236
0.00176006
0.00176911
0.00177988
0.00179277
0.00180833
0.00182743
0.00185123
0.0018818
0.00192311
0.00198324
0.00207617
0.00221858
0.00169682
0.00169725
0.00169813
0.0016995
0.00170136
0.00170367
0.00170642
0.00170963
0.00171331
0.00171753
0.00172236
0.00172792
0.00173436
0.00174189
0.00175074
0.00176125
0.00177384
0.00178907
0.00180775
0.00183104
0.00186073
0.00189975
0.00195259
0.00202394
0.00211215
0.00168029
0.0016807
0.00168152
0.00168282
0.00168457
0.00168677
0.00168941
0.0016925
0.00169605
0.00170011
0.00170476
0.0017101
0.00171627
0.00172344
0.00173184
0.00174177
0.00175359
0.00176779
0.00178502
0.00180617
0.0018324
0.00186526
0.00190595
0.00195454
0.00200546
0.00166412
0.0016645
0.00166527
0.00166648
0.00166812
0.00167018
0.00167266
0.00167557
0.00167891
0.00168272
0.00168707
0.00169204
0.00169774
0.00170433
0.00171199
0.00172096
0.00173153
0.00174404
0.00175893
0.0017767
0.00179787
0.00182282
0.00185126
0.0018814
0.00190832
0.00164833
0.00164868
0.00164939
0.0016505
0.00165201
0.00165391
0.00165619
0.00165886
0.00166192
0.0016654
0.00166934
0.0016738
0.00167889
0.0016847
0.00169139
0.00169911
0.00170806
0.00171844
0.00173046
0.00174428
0.00175994
0.00177717
0.00179505
0.00181128
0.0018224
0.00163294
0.00163326
0.0016339
0.0016349
0.00163626
0.00163797
0.00164002
0.0016424
0.00164512
0.00164819
0.00165163
0.00165549
0.00165984
0.00166474
0.00167028
0.00167657
0.00168369
0.00169172
0.00170067
0.00171048
0.00172087
0.00173125
0.00174049
0.00174666
0.00174714
0.00161796
0.00161825
0.00161882
0.0016197
0.00162089
0.00162239
0.00162418
0.00162624
0.00162857
0.00163117
0.00163405
0.00163724
0.00164075
0.00164465
0.00164895
0.00165371
0.00165892
0.00166455
0.0016705
0.00167653
0.00168223
0.0016869
0.00168943
0.00168828
0.00168152
0.00160342
0.00160368
0.00160416
0.00160491
0.00160593
0.0016072
0.0016087
0.00161041
0.00161232
0.00161441
0.00161669
0.00161915
0.0016218
0.00162464
0.00162767
0.00163088
0.0016342
0.00163754
0.00164069
0.00164336
0.00164507
0.00164511
0.00164255
0.00163613
0.00162445
0.00158934
0.00158955
0.00158994
0.00159056
0.00159139
0.00159241
0.00159361
0.00159496
0.00159642
0.00159799
0.00159964
0.00160136
0.00160312
0.00160491
0.00160669
0.0016084
0.00160994
0.00161115
0.00161182
0.00161158
0.00160999
0.00160639
0.0016
0.00158984
0.00157486
0.00157572
0.00157588
0.00157619
0.00157666
0.0015773
0.00157808
0.00157896
0.00157993
0.00158095
0.00158198
0.001583
0.00158398
0.00158487
0.00158564
0.00158622
0.00158653
0.00158643
0.00158576
0.00158426
0.00158159
0.00157733
0.00157092
0.0015617
0.00154893
0.0015318
0.00156258
0.0015627
0.00156292
0.00156325
0.00156369
0.00156421
0.00156479
0.00156538
0.00156595
0.00156645
0.00156686
0.00156712
0.00156718
0.00156698
0.00156645
0.00156548
0.00156392
0.0015616
0.00155827
0.00155362
0.00154725
0.0015387
0.00152743
0.00151287
0.00149443
0.00154995
0.00155002
0.00155014
0.00155034
0.00155058
0.00155085
0.00155112
0.00155134
0.00155147
0.00155147
0.00155128
0.00155086
0.00155014
0.00154906
0.00154751
0.0015454
0.00154258
0.00153886
0.00153401
0.00152775
0.00151975
0.00150961
0.0014969
0.00148119
0.00146202
0.00153782
0.00153786
0.00153789
0.00153794
0.00153799
0.00153802
0.00153799
0.00153786
0.00153757
0.00153709
0.00153634
0.00153529
0.00153386
0.00153197
0.00152953
0.00152642
0.00152251
0.00151762
0.00151155
0.00150403
0.00149478
0.0014835
0.00146982
0.00145342
0.00143395
0.00152623
0.00152622
0.00152616
0.00152608
0.00152595
0.00152575
0.00152543
0.00152496
0.00152428
0.00152334
0.00152209
0.00152046
0.00151839
0.00151578
0.00151256
0.00150861
0.00150379
0.00149794
0.00149088
0.0014824
0.00147225
0.00146016
0.00144588
0.00142914
0.00140968
0.00151516
0.00151511
0.00151497
0.00151477
0.00151446
0.00151404
0.00151346
0.00151267
0.00151163
0.00151028
0.00150857
0.00150642
0.00150378
0.00150055
0.00149666
0.00149199
0.00148643
0.00147982
0.001472
0.0014628
0.001452
0.00143941
0.0014248
0.00140797
0.00138875
0.00150465
0.00150455
0.00150434
0.00150401
0.00150355
0.00150292
0.00150209
0.00150102
0.00149965
0.00149792
0.00149579
0.00149319
0.00149006
0.0014863
0.00148185
0.00147659
0.00147043
0.00146322
0.00145484
0.00144512
0.00143391
0.00142102
0.00140631
0.0013896
0.00137077
0.00149467
0.00149455
0.00149426
0.00149382
0.00149321
0.0014924
0.00149135
0.00149001
0.00148834
0.00148629
0.00148379
0.0014808
0.00147724
0.00147304
0.00146812
0.0014624
0.00145577
0.00144812
0.00143933
0.00142927
0.00141781
0.00140482
0.00139015
0.00137371
0.00135539
0.00148525
0.00148509
0.00148474
0.0014842
0.00148346
0.00148248
0.00148122
0.00147965
0.00147772
0.00147538
0.00147257
0.00146924
0.00146533
0.00146077
0.00145548
0.00144939
0.00144241
0.00143444
0.00142538
0.00141513
0.00140357
0.0013906
0.00137612
0.00136004
0.0013423
0.00147638
0.00147619
0.00147578
0.00147515
0.00147429
0.00147315
0.00147172
0.00146995
0.00146779
0.0014652
0.00146213
0.00145852
0.00145432
0.00144946
0.00144389
0.00143752
0.00143029
0.00142211
0.0014129
0.00140257
0.00139102
0.00137819
0.00136399
0.00134836
0.00133126
0.00146806
0.00146784
0.00146738
0.00146667
0.0014657
0.00146443
0.00146284
0.00146089
0.00145854
0.00145574
0.00145245
0.00144861
0.00144418
0.0014391
0.00143332
0.00142676
0.00141937
0.00141107
0.0014018
0.00139148
0.00138004
0.00136743
0.00135358
0.00133845
0.00132202
0.00146028
0.00146004
0.00145953
0.00145875
0.00145768
0.00145631
0.00145458
0.00145248
0.00144997
0.00144699
0.00144352
0.00143951
0.0014349
0.00142966
0.00142372
0.00141704
0.00140957
0.00140123
0.00139198
0.00138175
0.00137049
0.00135817
0.00134472
0.00133013
0.00131438
0.00145303
0.00145277
0.00145222
0.00145138
0.00145024
0.00144876
0.00144693
0.0014447
0.00144205
0.00143894
0.00143533
0.00143118
0.00142645
0.00142109
0.00141507
0.00140833
0.00140082
0.00139251
0.00138334
0.00137327
0.00136225
0.00135025
0.00133725
0.00132322
0.00130816
0.0014463
0.00144602
0.00144544
0.00144456
0.00144334
0.00144179
0.00143986
0.00143754
0.00143478
0.00143156
0.00142785
0.0014236
0.00141878
0.00141336
0.00140729
0.00140054
0.00139307
0.00138484
0.0013758
0.00136593
0.0013552
0.00134357
0.00133103
0.00131758
0.00130321
0.00144008
0.00143979
0.00143919
0.00143826
0.00143699
0.00143537
0.00143337
0.00143097
0.00142813
0.00142483
0.00142104
0.00141674
0.00141187
0.00140643
0.00140036
0.00139364
0.00138625
0.00137813
0.00136927
0.00135965
0.00134922
0.00133799
0.00132594
0.00131306
0.00129937
0.00143436
0.00143406
0.00143344
0.00143247
0.00143117
0.00142949
0.00142744
0.00142497
0.00142208
0.00141873
0.0014149
0.00141056
0.00140568
0.00140024
0.00139421
0.00138757
0.00138028
0.00137232
0.00136367
0.00135432
0.00134423
0.00133341
0.00132184
0.00130955
0.00129652
0.00142913
0.00142882
0.00142817
0.00142719
0.00142585
0.00142414
0.00142204
0.00141953
0.0014166
0.00141322
0.00140937
0.00140503
0.00140017
0.00139477
0.00138881
0.00138226
0.00137511
0.00136734
0.00135893
0.00134986
0.00134013
0.00132972
0.00131866
0.00130693
0.00129456
0.00142435
0.00142404
0.00142338
0.00142238
0.00142102
0.00141928
0.00141716
0.00141463
0.00141168
0.00140828
0.00140444
0.00140011
0.00139529
0.00138995
0.00138408
0.00137767
0.00137068
0.00136311
0.00135495
0.00134619
0.00133682
0.00132685
0.00131627
0.0013051
0.00129336
0.00142003
0.00141971
0.00141905
0.00141803
0.00141665
0.0014149
0.00141276
0.00141022
0.00140727
0.00140389
0.00140006
0.00139577
0.00139101
0.00138576
0.00138
0.00137373
0.00136693
0.00135958
0.00135169
0.00134324
0.00133425
0.0013247
0.0013146
0.00130398
0.00129286
0.00141613
0.00141581
0.00141514
0.00141412
0.00141274
0.00141098
0.00140884
0.0014063
0.00140336
0.0014
0.00139621
0.00139198
0.00138729
0.00138214
0.00137652
0.0013704
0.0013638
0.00135669
0.00134907
0.00134095
0.00133232
0.00132319
0.00131358
0.00130349
0.00129295
0.00141264
0.00141232
0.00141165
0.00141063
0.00140925
0.00140749
0.00140536
0.00140284
0.00139992
0.00139659
0.00139285
0.00138869
0.0013841
0.00137906
0.00137358
0.00136764
0.00136124
0.00135437
0.00134704
0.00133924
0.00133098
0.00132227
0.00131312
0.00130354
0.00129357
0.00140955
0.00140923
0.00140856
0.00140754
0.00140616
0.00140442
0.0014023
0.0013998
0.00139692
0.00139364
0.00138996
0.00138588
0.00138139
0.00137648
0.00137115
0.00136539
0.0013592
0.00135258
0.00134554
0.00133806
0.00133017
0.00132186
0.00131316
0.00130409
0.00129466
0.00140682
0.0014065
0.00140584
0.00140483
0.00140346
0.00140173
0.00139964
0.00139717
0.00139433
0.00139111
0.0013875
0.00138351
0.00137913
0.00137436
0.00136919
0.00136362
0.00135765
0.00135128
0.00134451
0.00133736
0.00132982
0.00132191
0.00131365
0.00130505
0.00129614
0.00140444
0.00140413
0.00140347
0.00140247
0.00140112
0.00139941
0.00139735
0.00139492
0.00139213
0.00138897
0.00138545
0.00138155
0.00137729
0.00137266
0.00136765
0.00136227
0.00135652
0.0013504
0.00134392
0.00133708
0.00132989
0.00132237
0.00131453
0.00130639
0.00129798
0.0014024
0.00140209
0.00140144
0.00140046
0.00139912
0.00139744
0.00139541
0.00139302
0.00139029
0.0013872
0.00138376
0.00137997
0.00137583
0.00137135
0.00136651
0.00136132
0.00135579
0.00134992
0.00134372
0.00133719
0.00133034
0.00132319
0.00131576
0.00130806
0.00130012
0.00140066
0.00140035
0.00139972
0.00139875
0.00139744
0.00139579
0.0013938
0.00139146
0.00138878
0.00138577
0.00138242
0.00137874
0.00137473
0.00137039
0.00136572
0.00136073
0.00135542
0.00134979
0.00134386
0.00133763
0.00133112
0.00132433
0.00131728
0.00131
0.00130251
0.00139922
0.00139892
0.00139829
0.00139734
0.00139606
0.00139444
0.00139249
0.0013902
0.00138759
0.00138466
0.0013814
0.00137783
0.00137395
0.00136976
0.00136526
0.00136046
0.00135537
0.00134998
0.00134432
0.00133838
0.00133218
0.00132574
0.00131907
0.00131219
0.00130512
0.00139804
0.00139775
0.00139714
0.00139621
0.00139495
0.00139337
0.00139146
0.00138923
0.00138669
0.00138384
0.00138068
0.00137722
0.00137347
0.00136942
0.0013651
0.00136049
0.00135561
0.00135046
0.00134505
0.00133939
0.00133351
0.0013274
0.00132108
0.00131458
0.00130792
0.00139712
0.00139684
0.00139624
0.00139533
0.0013941
0.00139256
0.0013907
0.00138853
0.00138605
0.00138328
0.00138022
0.00137688
0.00137325
0.00136936
0.0013652
0.00136078
0.0013561
0.00135118
0.00134602
0.00134064
0.00133505
0.00132926
0.00132328
0.00131715
0.00131087
0.00139644
0.00139616
0.00139558
0.00139469
0.00139349
0.00139199
0.00139017
0.00138806
0.00138566
0.00138297
0.00138001
0.00137678
0.00137328
0.00136954
0.00136554
0.0013613
0.00135683
0.00135213
0.00134722
0.0013421
0.00133679
0.0013313
0.00132565
0.00131986
0.00131394
0.00139597
0.0013957
0.00139514
0.00139427
0.0013931
0.00139164
0.00138987
0.00138782
0.00138549
0.00138289
0.00138002
0.0013769
0.00137354
0.00136993
0.00136609
0.00136203
0.00135776
0.00135327
0.00134859
0.00134373
0.00133869
0.00133349
0.00132815
0.00132268
0.00131711
0.00139571
0.00139544
0.00139489
0.00139405
0.00139292
0.00139149
0.00138977
0.00138778
0.00138552
0.001383
0.00138023
0.00137723
0.00137399
0.00137052
0.00136684
0.00136296
0.00135887
0.00135459
0.00135014
0.00134551
0.00134073
0.00133581
0.00133076
0.0013256
0.00132036
0.00139562
0.00139537
0.00139484
0.00139402
0.00139291
0.00139152
0.00138986
0.00138793
0.00138574
0.0013833
0.00138063
0.00137773
0.00137461
0.00137129
0.00136776
0.00136404
0.00136014
0.00135606
0.00135182
0.00134743
0.00134289
0.00133823
0.00133346
0.0013286
0.00132366
0.00139571
0.00139546
0.00139494
0.00139415
0.00139308
0.00139173
0.00139012
0.00138824
0.00138613
0.00138377
0.00138119
0.0013784
0.0013754
0.00137221
0.00136883
0.00136527
0.00136154
0.00135766
0.00135362
0.00134945
0.00134515
0.00134074
0.00133623
0.00133164
0.00132699
0.00139594
0.0013957
0.0013952
0.00139443
0.00139339
0.00139209
0.00139052
0.00138871
0.00138666
0.00138439
0.0013819
0.00137921
0.00137633
0.00137326
0.00137003
0.00136662
0.00136307
0.00135936
0.00135553
0.00135156
0.00134749
0.00134331
0.00133906
0.00133473
0.00133034
0.00139632
0.00139609
0.0013956
0.00139486
0.00139385
0.00139258
0.00139106
0.00138931
0.00138733
0.00138513
0.00138274
0.00138015
0.00137738
0.00137444
0.00137134
0.00136808
0.00136469
0.00136116
0.00135751
0.00135375
0.00134989
0.00134594
0.00134191
0.00133783
0.0013337
0.00139681
0.00139659
0.00139612
0.0013954
0.00139442
0.00139319
0.00139173
0.00139003
0.00138812
0.001386
0.00138368
0.00138119
0.00137853
0.00137571
0.00137274
0.00136964
0.0013664
0.00136303
0.00135956
0.00135599
0.00135233
0.00134859
0.00134479
0.00134094
0.00133705
0.00139742
0.0013972
0.00139675
0.00139605
0.00139511
0.00139392
0.0013925
0.00139086
0.00138901
0.00138696
0.00138473
0.00138234
0.00137978
0.00137708
0.00137423
0.00137126
0.00136817
0.00136497
0.00136167
0.00135827
0.0013548
0.00135126
0.00134767
0.00134404
0.00134038
0.00139812
0.00139792
0.00139748
0.0013968
0.00139589
0.00139474
0.00139336
0.00139177
0.00138999
0.00138801
0.00138587
0.00138356
0.0013811
0.00137851
0.00137579
0.00137295
0.00137
0.00136695
0.00136381
0.00136058
0.00135729
0.00135394
0.00135055
0.00134712
0.00134367
0.00139891
0.00139871
0.00139829
0.00139764
0.00139675
0.00139564
0.0013943
0.00139277
0.00139104
0.00138914
0.00138707
0.00138485
0.00138249
0.00138001
0.0013774
0.00137468
0.00137187
0.00136896
0.00136597
0.00136291
0.00135979
0.00135662
0.00135341
0.00135017
0.00134693
0.00139977
0.00139958
0.00139918
0.00139854
0.00139768
0.00139661
0.00139532
0.00139383
0.00139217
0.00139033
0.00138834
0.0013862
0.00138393
0.00138155
0.00137905
0.00137645
0.00137376
0.00137099
0.00136815
0.00136524
0.00136228
0.00135928
0.00135624
0.00135319
0.00135013
0.00140069
0.00140051
0.00140012
0.00139951
0.00139868
0.00139764
0.00139639
0.00139495
0.00139334
0.00139157
0.00138965
0.00138759
0.00138541
0.00138312
0.00138073
0.00137825
0.00137568
0.00137303
0.00137033
0.00136756
0.00136475
0.00136191
0.00135904
0.00135615
0.00135327
0.00140167
0.00140149
0.00140112
0.00140053
0.00139972
0.00139871
0.00139751
0.00139612
0.00139456
0.00139285
0.001391
0.00138902
0.00138692
0.00138472
0.00138243
0.00138005
0.0013776
0.00137508
0.0013725
0.00136987
0.0013672
0.00136451
0.00136179
0.00135907
0.00135634
0.00140268
0.00140252
0.00140216
0.00140159
0.00140081
0.00139983
0.00139867
0.00139732
0.00139582
0.00139416
0.00139237
0.00139047
0.00138845
0.00138634
0.00138414
0.00138186
0.00137952
0.00137711
0.00137465
0.00137215
0.00136962
0.00136706
0.00136449
0.00136191
0.00135935
0.00140373
0.00140357
0.00140323
0.00140268
0.00140193
0.00140098
0.00139985
0.00139855
0.00139709
0.00139549
0.00139377
0.00139193
0.00138999
0.00138796
0.00138585
0.00138367
0.00138142
0.00137913
0.00137678
0.0013744
0.00137199
0.00136957
0.00136713
0.00136469
0.00136227
0.0014048
0.00140465
0.00140432
0.00140379
0.00140306
0.00140215
0.00140105
0.0013998
0.00139839
0.00139684
0.00139517
0.0013934
0.00139153
0.00138958
0.00138755
0.00138546
0.00138331
0.00138111
0.00137888
0.00137661
0.00137432
0.00137202
0.00136971
0.0013674
0.00136511
0.00140589
0.00140575
0.00140543
0.00140492
0.00140422
0.00140333
0.00140227
0.00140105
0.00139969
0.00139819
0.00139658
0.00139487
0.00139307
0.00139119
0.00138924
0.00138723
0.00138517
0.00138307
0.00138093
0.00137877
0.00137659
0.0013744
0.00137221
0.00137003
0.00136786
0.00140698
0.00140685
0.00140655
0.00140606
0.00140538
0.00140452
0.00140349
0.00140231
0.00140099
0.00139954
0.00139798
0.00139632
0.00139459
0.00139277
0.0013909
0.00138897
0.001387
0.00138498
0.00138294
0.00138088
0.0013788
0.00137672
0.00137464
0.00137257
0.00137052
0.00140808
0.00140796
0.00140767
0.0014072
0.00140654
0.00140571
0.00140471
0.00140356
0.00140228
0.00140087
0.00139937
0.00139776
0.00139609
0.00139434
0.00139253
0.00139068
0.00138878
0.00138685
0.0013849
0.00138293
0.00138094
0.00137896
0.00137698
0.00137502
0.00137307
0.00140917
0.00140906
0.00140879
0.00140833
0.0014077
0.00140689
0.00140592
0.0014048
0.00140356
0.0014022
0.00140073
0.00139918
0.00139756
0.00139587
0.00139413
0.00139234
0.00139052
0.00138867
0.00138679
0.00138491
0.00138302
0.00138112
0.00137924
0.00137738
0.00137553
0.00141025
0.00141015
0.00140989
0.00140946
0.00140884
0.00140806
0.00140712
0.00140603
0.00140482
0.0014035
0.00140208
0.00140057
0.001399
0.00139736
0.00139568
0.00139396
0.0013922
0.00139042
0.00138863
0.00138682
0.00138501
0.0013832
0.00138141
0.00137964
0.00137789
0.00141131
0.00141123
0.00141099
0.00141056
0.00140997
0.00140921
0.00140829
0.00140724
0.00140606
0.00140477
0.00140339
0.00140193
0.0014004
0.00139882
0.00139719
0.00139553
0.00139383
0.00139212
0.00139039
0.00138866
0.00138692
0.0013852
0.00138349
0.0013818
0.00138013
0.00141235
0.00141228
0.00141206
0.00141165
0.00141108
0.00141034
0.00140945
0.00140842
0.00140727
0.00140601
0.00140466
0.00140324
0.00140176
0.00140022
0.00139864
0.00139703
0.0013954
0.00139375
0.00139208
0.00139042
0.00138875
0.0013871
0.00138547
0.00138385
0.00138227
0.00141337
0.00141331
0.00141311
0.00141272
0.00141216
0.00141144
0.00141057
0.00140957
0.00140844
0.00140722
0.0014059
0.00140451
0.00140307
0.00140157
0.00140004
0.00139848
0.0013969
0.0013953
0.0013937
0.00139209
0.00139049
0.00138891
0.00138734
0.0013858
0.00138429
0.00141435
0.00141432
0.00141413
0.00141376
0.00141322
0.00141252
0.00141167
0.00141069
0.00140958
0.00140838
0.00140709
0.00140574
0.00140433
0.00140287
0.00140138
0.00139986
0.00139832
0.00139678
0.00139523
0.00139368
0.00139214
0.00139062
0.00138912
0.00138764
0.0013862
0.00141531
0.00141529
0.00141513
0.00141478
0.00141426
0.00141357
0.00141274
0.00141177
0.00141069
0.0014095
0.00140824
0.00140691
0.00140553
0.0014041
0.00140265
0.00140117
0.00139968
0.00139818
0.00139667
0.00139518
0.00139369
0.00139223
0.00139078
0.00138937
0.00138799
0.00141624
0.00141624
0.0014161
0.00141577
0.00141526
0.00141459
0.00141377
0.00141282
0.00141175
0.00141058
0.00140933
0.00140803
0.00140667
0.00140527
0.00140385
0.0014024
0.00140095
0.00139949
0.00139803
0.00139658
0.00139515
0.00139373
0.00139234
0.00139098
0.00138966
0.00141713
0.00141717
0.00141705
0.00141674
0.00141624
0.00141558
0.00141477
0.00141382
0.00141276
0.00141161
0.00141037
0.00140908
0.00140774
0.00140637
0.00140497
0.00140356
0.00140214
0.00140071
0.0013993
0.00139789
0.0013965
0.00139513
0.00139379
0.00139248
0.00139121
0.001418
0.00141807
0.00141797
0.00141768
0.0014172
0.00141654
0.00141573
0.00141479
0.00141373
0.00141258
0.00141136
0.00141007
0.00140875
0.0014074
0.00140602
0.00140463
0.00140324
0.00140185
0.00140047
0.0013991
0.00139774
0.00139642
0.00139512
0.00139386
0.00139263
0.00141885
0.00141895
0.00141889
0.00141861
0.00141813
0.00141748
0.00141666
0.00141571
0.00141465
0.0014135
0.00141227
0.001411
0.00140968
0.00140834
0.00140699
0.00140562
0.00140425
0.00140289
0.00140154
0.0014002
0.00139888
0.00139759
0.00139633
0.00139511
0.00139393
0.00141968
0.00141983
0.00141981
0.00141954
0.00141906
0.00141839
0.00141755
0.00141659
0.00141551
0.00141435
0.00141313
0.00141185
0.00141054
0.00140921
0.00140787
0.00140652
0.00140517
0.00140383
0.0014025
0.0014012
0.00139991
0.00139866
0.00139743
0.00139625
0.0013951
0.00142052
0.00142073
0.00142074
0.00142047
0.00141997
0.00141928
0.00141842
0.00141742
0.00141632
0.00141515
0.00141391
0.00141263
0.00141132
0.00140999
0.00140866
0.00140732
0.00140599
0.00140467
0.00140337
0.00140209
0.00140083
0.0013996
0.00139841
0.00139725
0.00139614
0.0014214
0.00142167
0.00142171
0.00142143
0.00142089
0.00142015
0.00141924
0.0014182
0.00141707
0.00141587
0.00141461
0.00141332
0.001412
0.00141068
0.00140935
0.00140803
0.00140671
0.00140541
0.00140412
0.00140286
0.00140163
0.00140043
0.00139926
0.00139814
0.00139706
0.00142237
0.00142271
0.00142277
0.00142244
0.00142183
0.001421
0.00142002
0.00141893
0.00141775
0.00141651
0.00141522
0.00141392
0.0014126
0.00141127
0.00140995
0.00140863
0.00140733
0.00140604
0.00140477
0.00140353
0.00140232
0.00140114
0.0014
0.0013989
0.00139784
0.00142356
0.00142394
0.00142397
0.00142353
0.00142278
0.00142183
0.00142075
0.00141958
0.00141834
0.00141706
0.00141575
0.00141442
0.00141309
0.00141176
0.00141044
0.00140913
0.00140784
0.00140656
0.00140531
0.00140409
0.00140289
0.00140173
0.00140061
0.00139953
0.00139849
0.00142517
0.00142549
0.00142537
0.00142471
0.00142375
0.00142263
0.00142141
0.00142014
0.00141883
0.0014175
0.00141616
0.00141482
0.00141348
0.00141215
0.00141083
0.00140952
0.00140824
0.00140698
0.00140574
0.00140453
0.00140335
0.0014022
0.0014011
0.00140004
0.00139902
0.00142755
0.00142754
0.00142706
0.001426
0.00142471
0.00142335
0.00142197
0.00142058
0.0014192
0.00141782
0.00141646
0.0014151
0.00141375
0.00141242
0.0014111
0.00140981
0.00140853
0.00140728
0.00140605
0.00140485
0.00140369
0.00140256
0.00140147
0.00140042
0.00139941
0.00143161
0.00143051
0.00142907
0.00142732
0.00142557
0.00142391
0.00142235
0.00142086
0.00141941
0.001418
0.00141662
0.00141525
0.00141391
0.00141258
0.00141127
0.00140998
0.00140871
0.00140747
0.00140625
0.00140507
0.00140391
0.00140279
0.00140171
0.00140067
0.00139968
0.00144056
0.00143531
0.00143135
0.00142847
0.00142615
0.00142419
0.00142247
0.0014209
0.00141943
0.00141801
0.00141663
0.00141527
0.00141393
0.00141262
0.00141132
0.00141004
0.00140878
0.00140755
0.00140634
0.00140517
0.00140402
0.00140291
0.00140184
0.00140081
0.00139982
0.00145843
0.00144179
0.00143341
0.0014292
0.00142635
0.00142417
0.00142237
0.00142078
0.00141931
0.00141791
0.00141654
0.0014152
0.00141388
0.00141258
0.00141129
0.00141003
0.00140878
0.00140755
0.00140636
0.00140518
0.00140405
0.00140294
0.00140187
0.00140085
0.00139987
-0.379231
-0.367593
-0.345826
-0.315097
-0.279895
-0.244703
-0.211408
-0.178303
-0.145397
-0.114718
-0.0884138
-0.0669151
-0.0497158
-0.0364373
-0.0265729
-0.0193229
-0.0139818
-0.0100555
-0.00718508
-0.00509672
-0.00358146
-0.00248575
-0.00170685
-0.00118958
-0.000887659
-0.29999
-0.290562
-0.270701
-0.243069
-0.212608
-0.180157
-0.144537
-0.109061
-0.0785029
-0.0547868
-0.0377688
-0.0256428
-0.0175184
-0.0122923
-0.00879261
-0.00625867
-0.0044626
-0.00316252
-0.00218505
-0.00144332
-0.000879328
-0.000452023
-0.000137394
8.37955e-05
0.000233228
-0.224063
-0.209931
-0.186856
-0.15955
-0.133908
-0.109871
-0.0860079
-0.0627222
-0.0423274
-0.0270062
-0.0164438
-0.0093592
-0.00493517
-0.00231853
-0.00076393
0.000183109
0.000741334
0.00100296
0.00111623
0.00117052
0.0012033
0.00123082
0.001257
0.00128027
0.00131056
-0.170862
-0.155462
-0.13429
-0.110931
-0.0897794
-0.071379
-0.0551313
-0.0408296
-0.0287682
-0.0192238
-0.0119346
-0.00675576
-0.00327208
-0.00107881
0.000271902
0.00111013
0.00160824
0.00187374
0.00198923
0.00201777
0.00200281
0.00197212
0.00194065
0.00191288
0.00190191
-0.119355
-0.103948
-0.084772
-0.0654272
-0.0499878
-0.0388334
-0.0304452
-0.0237902
-0.0181178
-0.013361
-0.00959121
-0.00652492
-0.00407163
-0.00218047
-0.000769634
0.000250009
0.000960176
0.00143373
0.00173225
0.0019071
0.00199938
0.00204056
0.0020521
0.00204505
0.00203386
-0.0734371
-0.0611574
-0.0463861
-0.0335536
-0.0247646
-0.019555
-0.0167551
-0.0148334
-0.0129319
-0.0109728
-0.0089198
-0.00688946
-0.00501414
-0.00337043
-0.00199308
-0.000886618
-3.12965e-05
0.000607074
0.00106729
0.00138717
0.00160062
0.00173617
0.00181518
0.00185064
0.00185353
-0.0389659
-0.0309307
-0.0216214
-0.0140794
-0.00948712
-0.00790331
-0.00788336
-0.00829544
-0.00839413
-0.00812164
-0.00746907
-0.00642864
-0.0052025
-0.00394916
-0.00277361
-0.00174034
-0.000874525
-0.000176609
0.000367187
0.000777498
0.00107669
0.0012859
0.00142186
0.00149455
0.00151223
-0.0173537
-0.0116714
-0.00572727
-0.00161067
0.000344321
0.000173175
-0.00134609
-0.00330404
-0.00488252
-0.00568306
-0.0058377
-0.00548649
-0.00481234
-0.0039819