/*--------------------------------*- C++ -*----------------------------------*\
  =========                 |
  \\      /  F ield         | OpenFOAM: The Open Source CFD Toolbox
   \\    /   O peration     | Website:  https://openfoam.org
    \\  /    A nd           | Version:  13
     \\/     M anipulation  |
\*---------------------------------------------------------------------------*/
FoamFile
{
    format      ascii;
    class       surfaceScalarField;
    location    "28";
    object      phi;
}
// * * * * * * * * * * * * * * * * * * * * * * * * * * * * * * * * * * * * * //

dimensions      [0 3 -1 0 0 0 0];

internalField   nonuniform List<scalar> 
12590
(
-6.71777e-08
6.78404e-08
-1.56274e-07
8.85165e-08
-2.42723e-07
8.70788e-08
-3.08821e-07
6.6616e-08
-3.42282e-07
3.42784e-08
-3.45806e-07
4.42369e-09
-3.29484e-07
-1.53836e-08
-2.99302e-07
-2.90773e-08
-2.59888e-07
-3.88857e-08
-2.19006e-07
-3.91649e-08
-1.9e-07
-2.81547e-08
-1.82837e-07
-4.98678e-09
-1.85307e-07
3.40561e-09
-1.80567e-07
-2.9692e-09
-1.62793e-07
-1.6913e-08
-1.30084e-07
-3.11962e-08
-8.79749e-08
-4.14371e-08
-3.65648e-08
-4.91453e-08
1.79623e-08
-5.35031e-08
7.04616e-08
-4.90641e-08
1.12137e-07
-4.03564e-08
1.38578e-07
-2.39647e-08
1.29763e-07
9.76521e-09
8.39205e-08
4.6978e-08
8.42292e-08
-8.16555e-08
1.4995e-07
-1.56921e-07
1.63997e-07
-2.02507e-07
1.33541e-07
-2.23205e-07
8.82009e-08
-2.32698e-07
4.52298e-08
-2.41452e-07
1.49087e-08
-2.56046e-07
3.46569e-10
-2.80035e-07
-3.83898e-09
-3.00299e-07
-1.7712e-08
-2.94424e-07
-4.37618e-08
-2.95127e-07
-2.64119e-08
-3.04454e-07
5.65834e-09
-3.05625e-07
5.49737e-09
-2.87851e-07
-1.96711e-08
-2.54422e-07
-4.94845e-08
-2.12228e-07
-7.24012e-08
-1.64059e-07
-8.87941e-08
-1.09568e-07
-1.02332e-07
-4.78205e-08
-1.13947e-07
2.32794e-08
-1.18027e-07
8.9565e-08
-1.04529e-07
1.29715e-07
-6.22171e-08
1.19532e-07
2.23636e-08
6.51179e-08
1.02364e-07
1.49786e-07
-1.52881e-08
1.66127e-07
2.08257e-09
1.47175e-07
7.54011e-08
6.12404e-08
1.78929e-07
-1.47577e-08
2.62772e-07
-3.8179e-08
2.85853e-07
-7.79425e-09
2.25691e-07
6.07142e-08
8.94031e-08
1.32825e-07
-8.49437e-08
1.57248e-07
-2.11549e-07
8.40987e-08
-2.62865e-07
2.61418e-08
-2.96938e-07
4.08557e-08
-3.08107e-07
1.75988e-08
-2.86745e-07
-4.00191e-08
-2.49352e-07
-8.59983e-08
-2.08222e-07
-1.12537e-07
-1.68552e-07
-1.27594e-07
-1.26633e-07
-1.42912e-07
-7.76195e-08
-1.61752e-07
-1.91216e-08
-1.74643e-07
4.37948e-08
-1.65902e-07
9.4427e-08
-1.10298e-07
9.6552e-08
2.13163e-08
4.66486e-08
1.54121e-07
1.96756e-07
6.27405e-08
1.04e-07
2.17174e-07
-6.87192e-09
4.00929e-07
-1.21923e-07
5.3215e-07
-1.4576e-07
5.81134e-07
-8.69466e-08
5.5372e-07
1.95561e-08
4.64609e-07
1.49547e-07
3.21304e-07
2.76128e-07
1.21856e-07
3.56771e-07
-9.88738e-08
3.05734e-07
-2.34505e-07
1.62766e-07
-3.03692e-07
1.11064e-07
-3.21431e-07
3.6303e-08
-2.93652e-07
-6.67068e-08
-2.53402e-07
-1.25287e-07
-2.19986e-07
-1.44915e-07
-1.93903e-07
-1.52737e-07
-1.63208e-07
-1.7247e-07
-1.21399e-07
-2.0241e-07
-6.86045e-08
-2.26177e-07
-9.24637e-09
-2.23905e-07
4.60278e-08
-1.647e-07
6.99367e-08
5.06904e-10
3.35493e-08
1.91343e-07
2.30681e-07
1.67488e-07
-6.30553e-08
4.15937e-07
-2.54753e-07
5.8876e-07
-2.94216e-07
6.61285e-07
-2.17887e-07
6.4497e-07
-7.03527e-08
5.65474e-07
9.8967e-08
4.47686e-07
2.67108e-07
2.95816e-07
4.27902e-07
1.10607e-07
5.42041e-07
-9.66406e-08
5.13724e-07
-2.67784e-07
3.34646e-07
-3.45938e-07
1.9029e-07
-3.43681e-07
3.51372e-08
-3.02306e-07
-1.0681e-07
-2.77741e-07
-1.48749e-07
-2.65916e-07
-1.55722e-07
-2.52847e-07
-1.64838e-07
-2.26655e-07
-1.97707e-07
-1.86079e-07
-2.42034e-07
-1.33236e-07
-2.77948e-07
-7.22423e-08
-2.84011e-07
-9.53871e-09
-2.25611e-07
3.49942e-08
-4.38344e-08
2.07202e-08
2.08096e-07
2.51781e-07
2.52777e-07
-3.14883e-07
4.66976e-07
-4.68196e-07
5.54127e-07
-3.80355e-07
5.42724e-07
-2.05623e-07
4.72659e-07
7.97648e-10
3.74904e-07
1.96928e-07
2.56346e-07
3.85851e-07
1.18221e-07
5.65942e-07
-3.65876e-08
6.97103e-07
-2.00903e-07
6.78592e-07
-3.4489e-07
4.79336e-07
-3.93761e-07
2.40172e-07
-3.53724e-07
-3.63405e-09
-3.26371e-07
-1.32827e-07
-3.29854e-07
-1.44133e-07
-3.33714e-07
-1.5088e-07
-3.2589e-07
-1.71833e-07
-3.01259e-07
-2.21533e-07
-2.6173e-07
-2.80796e-07
-2.08571e-07
-3.30266e-07
-1.44215e-07
-3.477e-07
-7.30183e-08
-2.96563e-07
-4.61951e-09
-1.08851e-07
4.06114e-09
2.00226e-07
2.56336e-07
2.42155e-07
-5.55816e-07
3.63279e-07
-5.87836e-07
3.59817e-07
-3.75172e-07
2.78468e-07
-1.22049e-07
1.76753e-07
1.04994e-07
8.02408e-08
2.94092e-07
-1.76574e-08
4.84003e-07
-1.25852e-07
6.7405e-07
-2.3307e-07
8.04462e-07
-3.38894e-07
7.84665e-07
-4.20805e-07
5.6174e-07
-4.19987e-07
2.4023e-07
-3.69547e-07
-5.28066e-08
-3.82705e-07
-1.18529e-07
-4.05641e-07
-1.20223e-07
-4.18017e-07
-1.37745e-07
-4.13698e-07
-1.75498e-07
-3.90279e-07
-2.44408e-07
-3.52782e-07
-3.17726e-07
-3.01378e-07
-3.81224e-07
-2.34993e-07
-4.13632e-07
-1.5266e-07
-3.77528e-07
-6.3871e-08
-1.98447e-07
-6.36963e-09
1.4637e-07
2.49686e-07
1.65033e-07
-7.18958e-07
2.02296e-07
-6.23073e-07
1.13704e-07
-2.83582e-07
7.95586e-09
-1.17275e-08
-7.43475e-08
1.8958e-07
-1.50457e-07
3.70426e-07
-2.4394e-07
5.77405e-07
-3.41414e-07
7.7121e-07
-4.07289e-07
8.70152e-07
-4.53281e-07
8.30614e-07
-4.67208e-07
5.75827e-07
-4.24094e-07
1.97817e-07
-4.24427e-07
-5.14891e-08
-4.755e-07
-6.6568e-08
-5.17117e-07
-7.78947e-08
-5.34232e-07
-1.20057e-07
-5.25226e-07
-1.84141e-07
-5.00073e-07
-2.69214e-07
-4.6367e-07
-3.5401e-07
-4.13848e-07
-4.3091e-07
-3.46432e-07
-4.81056e-07
-2.57231e-07
-4.67463e-07
-1.41769e-07
-3.11173e-07
-3.03124e-08
3.27561e-08
2.19621e-07
8.03308e-08
-7.97059e-07
5.00993e-08
-5.90116e-07
-5.983e-08
-1.6985e-07
-1.48085e-07
7.91836e-08
-2.30317e-07
2.7235e-07
-3.36531e-07
4.76325e-07
-4.41939e-07
6.82458e-07
-5.2242e-07
8.51178e-07
-5.55138e-07
9.02518e-07
-5.52516e-07
8.27714e-07
-5.1063e-07
5.33908e-07
-4.72509e-07
1.60238e-07
-5.51288e-07
2.80518e-08
-6.28046e-07
1.10364e-08
-6.71109e-07
-3.42105e-08
-6.77311e-07
-1.13348e-07
-6.58424e-07
-2.02729e-07
-6.2828e-07
-2.99253e-07
-5.868e-07
-3.9543e-07
-5.3359e-07
-4.84311e-07
-4.63743e-07
-5.51102e-07
-3.66397e-07
-5.63973e-07
-2.28794e-07
-4.50697e-07
-6.21684e-08
-1.32556e-07
1.55977e-07
-5.59204e-09
-7.88938e-07
-9.88615e-08
-4.94199e-07
-2.25305e-07
-4.11378e-08
-3.28784e-07
1.83441e-07
-4.32899e-07
3.76341e-07
-5.43489e-07
5.86467e-07
-6.40034e-07
7.78598e-07
-6.92087e-07
9.02673e-07
-6.95931e-07
9.0597e-07
-6.47335e-07
7.78827e-07
-5.92855e-07
4.79459e-07
-6.41404e-07
2.09217e-07
-7.60279e-07
1.47686e-07
-8.32901e-07
8.45193e-08
-8.53222e-07
-1.3152e-08
-8.40287e-07
-1.25643e-07
-8.05336e-07
-2.37371e-07
-7.55268e-07
-3.49065e-07
-6.95767e-07
-4.54978e-07
-6.31303e-07
-5.48957e-07
-5.58729e-07
-6.23764e-07
-4.63358e-07
-6.60078e-07
-3.14946e-07
-5.97777e-07
-1.08409e-07
-3.42252e-07
4.67211e-08
-8.80051e-08
-6.98291e-07
-2.29098e-07
-3.50814e-07
-3.66923e-07
9.85914e-08
-4.83144e-07
2.99813e-07
-6.04579e-07
4.97724e-07
-7.15084e-07
6.96459e-07
-7.91271e-07
8.544e-07
-8.14902e-07
9.25781e-07
-7.94045e-07
8.84796e-07
-7.46168e-07
7.30674e-07
-7.71781e-07
5.05051e-07
-9.11721e-07
3.49647e-07
-1.02273e-06
2.59283e-07
-1.06065e-06
1.23344e-07
-1.04249e-06
-3.04946e-08
-9.9163e-07
-1.7574e-07
-9.18391e-07
-3.10167e-07
-8.34425e-07
-4.32692e-07
-7.49947e-07
-5.39459e-07
-6.71473e-07
-6.2756e-07
-5.97906e-07
-6.97588e-07
-5.11885e-07
-7.45752e-07
-3.80489e-07
-7.31107e-07
-1.70329e-07
-5.52826e-07
-1.25391e-07
-1.3183e-07
-5.63424e-07
-2.87889e-07
-1.91849e-07
-3.8495e-07
1.97253e-07
-5.1122e-07
4.26406e-07
-6.54555e-07
6.40863e-07
-7.78095e-07
8.19729e-07
-8.61828e-07
9.37811e-07
-9.07145e-07
9.7062e-07
-9.38828e-07
9.16081e-07
-1.00125e-06
7.92867e-07
-1.12932e-06
6.33151e-07
-1.25324e-06
4.73874e-07
-1.28042e-06
2.87064e-07
-1.22886e-06
7.26841e-08
-1.14385e-06
-1.1453e-07
-1.0454e-06
-2.73311e-07
-9.39537e-07
-4.15358e-07
-8.33162e-07
-5.38625e-07
-7.32816e-07
-6.39708e-07
-6.4383e-07
-7.16636e-07
-5.67754e-07
-7.73983e-07
-4.93548e-07
-8.2061e-07
-3.8803e-07
-8.35989e-07
-2.12988e-07
-7.30401e-07
-3.38735e-07
-1.53361e-07
-4.06211e-07
-2.98662e-07
-4.37244e-08
-4.17576e-07
3.17374e-07
-5.92635e-07
6.01759e-07
-7.79111e-07
8.27356e-07
-9.51783e-07
9.92284e-07
-1.10242e-06
1.08812e-06
-1.23657e-06
1.10441e-06
-1.35187e-06
1.03116e-06
-1.44405e-06
8.84769e-07
-1.48535e-06
6.74493e-07
-1.43833e-06
4.27239e-07
-1.33337e-06
1.82879e-07
-1.22846e-06
-3.11063e-08
-1.12623e-06
-2.15536e-07
-1.01741e-06
-3.80996e-07
-9.06106e-07
-5.25719e-07
-7.96691e-07
-6.47435e-07
-6.92239e-07
-7.43767e-07
-5.95901e-07
-8.13091e-07
-5.10065e-07
-8.59879e-07
-4.33348e-07
-8.97162e-07
-3.47518e-07
-9.23619e-07
-2.12014e-07
-8.6579e-07
-5.51898e-07
-1.98268e-07
-2.04115e-07
-4.41769e-07
2.0202e-07
-6.8283e-07
5.5918e-07
-9.2794e-07
8.47089e-07
-1.16415e-06
1.0636e-06
-1.37703e-06
1.20507e-06
-1.54683e-06
1.25774e-06
-1.64783e-06
1.20519e-06
-1.66992e-06
1.05274e-06
-1.61211e-06
8.2695e-07
-1.501e-06
5.63382e-07
-1.38502e-06
3.11937e-07
-1.29266e-06
9.15558e-08
-1.21097e-06
-1.11392e-07
-1.11842e-06
-3.06658e-07
-1.01442e-06
-4.83639e-07
-9.03856e-07
-6.35079e-07
-7.91612e-07
-7.58924e-07
-6.81621e-07
-8.53279e-07
-5.75639e-07
-9.19012e-07
-4.75138e-07
-9.60519e-07
-3.8422e-07
-9.89001e-07
-2.97096e-07
-1.00991e-06
-1.85656e-07
-9.79826e-07
-7.37693e-07
-3.20693e-07
1.19446e-07
-6.73263e-07
5.55529e-07
-9.84387e-07
8.70576e-07
-1.255e-06
1.11782e-06
-1.47995e-06
1.28846e-06
-1.64319e-06
1.36814e-06
-1.7271e-06
1.34141e-06
-1.72855e-06
1.20592e-06
-1.65538e-06
9.7947e-07
-1.53342e-06
7.04448e-07
-1.42198e-06
4.52403e-07
-1.35357e-06
2.44245e-07
-1.30131e-06
4.07338e-08
-1.23044e-06
-1.80624e-07
-1.13957e-06
-3.9597e-07
-1.03209e-06
-5.89351e-07
-9.14156e-07
-7.51906e-07
-7.91956e-07
-8.80119e-07
-6.71618e-07
-9.73351e-07
-5.55041e-07
-1.0356e-06
-4.44026e-07
-1.07234e-06
-3.40115e-07
-1.09286e-06
-2.47069e-07
-1.10608e-06
-1.45295e-07
-1.0813e-06
-8.85221e-07
-4.3197e-07
5.53589e-07
-8.08718e-07
9.33185e-07
-1.12507e-06
1.18741e-06
-1.38132e-06
1.37412e-06
-1.57035e-06
1.47747e-06
-1.68082e-06
1.47826e-06
-1.70374e-06
1.36394e-06
-1.63984e-06
1.14105e-06
-1.51875e-06
8.58214e-07
-1.41514e-06
6.00158e-07
-1.36736e-06
4.05603e-07
-1.34311e-06
2.2059e-07
-1.2999e-06
-1.41995e-10
-1.23317e-06
-2.45704e-07
-1.14163e-06
-4.85567e-07
-1.02761e-06
-7.00958e-07
-8.99515e-07
-8.79205e-07
-7.64305e-07
-1.01334e-06
-6.30522e-07
-1.10777e-06
-5.01319e-07
-1.16436e-06
-3.81447e-07
-1.19381e-06
-2.74099e-07
-1.20197e-06
-1.83276e-07
-1.1973e-06
-1.07234e-07
-1.16253e-06
-9.95788e-07
-4.50317e-07
1.0062e-06
-8.02689e-07
1.28713e-06
-1.09297e-06
1.47897e-06
-1.31817e-06
1.6001e-06
-1.47172e-06
1.63106e-06
-1.54412e-06
1.55136e-06
-1.53008e-06
1.34786e-06
-1.44418e-06
1.0565e-06
-1.35486e-06
7.65501e-07
-1.31202e-06
5.59911e-07
-1.30395e-06
3.95193e-07
-1.28768e-06
2.0866e-07
-1.25607e-06
-3.14199e-08
-1.20145e-06
-2.97762e-07
-1.11392e-06
-5.68767e-07
-9.99546e-07
-8.15624e-07
-8.60189e-07
-1.01207e-06
-7.14634e-07
-1.16174e-06
-5.63857e-07
-1.25303e-06
-4.26076e-07
-1.30668e-06
-2.97403e-07
-1.31947e-06
-1.92041e-07
-1.31192e-06
-1.12165e-07
-1.28003e-06
-6.10443e-08
-1.22159e-06
-1.05827e-06
-3.82969e-07
1.39297e-06
-6.95234e-07
1.60213e-06
-9.46027e-07
1.73149e-06
-1.1351e-06
1.79018e-06
-1.25807e-06
1.75551e-06
-1.3116e-06
1.60357e-06
-1.29437e-06
1.33238e-06
-1.2405e-06
9.98483e-07
-1.19751e-06
7.24902e-07
-1.19255e-06
5.50928e-07
-1.1859e-06
3.92859e-07
-1.17815e-06
1.98901e-07
-1.16137e-06
-4.4392e-08
-1.12094e-06
-3.33663e-07
-1.04737e-06
-6.42103e-07
-9.31928e-07
-9.21389e-07
-7.93632e-07
-1.15352e-06
-6.30403e-07
-1.31474e-06
-4.75996e-07
-1.413e-06
-3.25459e-07
-1.44939e-06
-2.03166e-07
-1.44897e-06
-9.97962e-08
-1.41212e-06
-3.33539e-08
-1.3553e-06
5.06526e-09
-1.26035e-06
-1.05769e-06
-2.8526e-07
1.67981e-06
-5.42799e-07
1.8611e-06
-7.46607e-07
1.93646e-06
-8.98757e-07
1.94357e-06
-1.0006e-06
1.85764e-06
-1.05103e-06
1.65537e-06
-1.05647e-06
1.33662e-06
-1.03571e-06
9.78607e-07
-1.02313e-06
7.10304e-07
-1.02111e-06
5.50388e-07
-1.01774e-06
3.87426e-07
-1.00904e-06
1.94168e-07
-1.0046e-06
-4.62966e-08
-9.80536e-07
-3.55036e-07
-9.20443e-07
-6.94128e-07
-8.22003e-07
-1.01973e-06
-6.77284e-07
-1.28891e-06
-5.13294e-07
-1.48124e-06
-3.43352e-07
-1.57531e-06
-1.96607e-07
-1.6009e-06
-6.96082e-08
-1.57104e-06
1.63905e-08
-1.50495e-06
6.35759e-08
-1.39922e-06
5.42051e-08
-1.26037e-06
-1.00959e-06
-1.88067e-07
1.86906e-06
-3.80204e-07
2.05386e-06
-5.31677e-07
2.0885e-06
-6.45233e-07
2.05808e-06
-7.25745e-07
1.93975e-06
-7.78596e-07
1.70973e-06
-8.0767e-07
1.36729e-06
-8.1565e-07
9.87712e-07
-8.06477e-07
7.01916e-07
-7.86147e-07
5.30316e-07
-7.75736e-07
3.79517e-07
-7.72586e-07
1.91986e-07
-7.7011e-07
-4.50967e-08
-7.62282e-07
-3.58053e-07
-7.33667e-07
-7.20152e-07
-6.54033e-07
-1.09383e-06
-5.20327e-07
-1.42165e-06
-3.47056e-07
-1.65025e-06
-1.72395e-07
-1.75061e-06
-1.38286e-08
-1.75689e-06
1.13433e-07
-1.70093e-06
2.05026e-07
-1.59461e-06
2.41903e-07
-1.4426e-06
1.97193e-07
-1.22616e-06
-8.16301e-07
-6.49919e-08
1.93362e-06
-1.55333e-07
2.14417e-06
-2.19285e-07
2.1532e-06
-2.65252e-07
2.10533e-06
-3.04423e-07
1.98076e-06
-3.50384e-07
1.75883e-06
-4.07699e-07
1.42789e-06
-4.53716e-07
1.03692e-06
-4.52794e-07
7.03897e-07
-4.14083e-07
4.94395e-07
-4.1821e-07
3.85196e-07
-4.53448e-07
2.32648e-07
-4.95173e-07
2.69651e-10
-5.93786e-07
-2.56529e-07
-7.16165e-07
-5.95181e-07
-7.85104e-07
-1.0231e-06
-7.62191e-07
-1.44259e-06
-6.56682e-07
-1.75462e-06
-5.17322e-07
-1.88876e-06
-3.75847e-07
-1.89824e-06
-2.40101e-07
-1.83638e-06
-1.10773e-07
-1.72624e-06
1.81637e-08
-1.57767e-06
1.79403e-07
-1.39159e-06
-1.16638e-06
5.19929e-07
1.53159e-08
1.91868e-06
-6.91177e-09
2.16674e-06
-1.93383e-08
2.16614e-06
-2.36517e-08
2.11073e-06
-2.89652e-08
1.98963e-06
-5.27043e-08
1.78618e-06
-1.06832e-07
1.48673e-06
-1.75825e-07
1.11048e-06
-2.07288e-07
7.39759e-07
-1.64146e-07
4.552e-07
-6.9431e-08
2.98268e-07
-9.03801e-09
1.78992e-07
-3.32448e-08
3.04321e-08
-1.62745e-07
-1.24007e-07
-3.72932e-07
-3.8314e-07
-5.46771e-07
-8.47406e-07
-5.99965e-07
-1.38811e-06
-5.23852e-07
-1.82948e-06
-3.86408e-07
-2.02532e-06
-2.38702e-07
-2.04528e-06
-9.175e-08
-1.98375e-06
5.44178e-08
-1.8745e-06
2.09284e-07
-1.73379e-06
3.86008e-07
-1.57673e-06
-1.41217e-06
6.31481e-07
8.80047e-08
1.8301e-06
1.2698e-07
2.12767e-06
1.57435e-07
2.13614e-06
1.93593e-07
2.07707e-06
2.25112e-07
1.96015e-06
2.38938e-07
1.7765e-06
2.16698e-07
1.51335e-06
1.52958e-07
1.17832e-06
7.83255e-08
8.18508e-07
3.79586e-08
5.00456e-07
6.57059e-08
2.74816e-07
1.28299e-07
1.29468e-07
1.85903e-07
-2.25142e-08
1.82333e-07
-1.16815e-07
3.05347e-08
-2.28563e-07
-2.31213e-07
-5.84185e-07
-3.78377e-07
-1.23963e-06
-3.4691e-07
-1.85983e-06
-2.23654e-07
-2.14758e-06
-7.93192e-08
-2.18916e-06
7.07291e-08
-2.13383e-06
2.23407e-07
-2.02763e-06
3.80079e-07
-1.89502e-06
5.53336e-07
-1.74857e-06
-1.60768e-06
7.468e-07
1.5951e-07
1.6707e-06
2.47891e-07
2.03938e-06
3.16223e-07
2.06866e-06
3.84834e-07
2.00915e-06
4.4874e-07
1.89983e-06
4.95631e-07
1.73315e-06
5.10274e-07
1.50214e-06
4.80746e-07
1.21132e-06
4.14411e-07
8.87467e-07
3.38996e-07
5.77996e-07
2.97702e-07
3.22811e-07
3.0052e-07
1.27831e-07
3.17855e-07
-3.43136e-08
3.45746e-07
-1.41227e-07
3.17331e-07
-1.98104e-07
1.00709e-07
-3.65527e-07
-1.2457e-07
-1.01302e-06
-1.44835e-07
-1.83852e-06
-4.44316e-08
-2.24709e-06
8.97465e-08
-2.32272e-06
2.34445e-07
-2.27854e-06
3.81601e-07
-2.17607e-06
5.33291e-07
-2.04549e-06
6.88307e-07
-1.90696e-06
-1.76939e-06
8.51629e-07
2.2677e-07
1.44284e-06
3.63069e-07
1.90262e-06
4.62812e-07
1.96907e-06
5.55735e-07
1.91868e-06
6.40764e-07
1.8161e-06
7.10564e-07
1.66631e-06
7.52286e-07
1.46333e-06
7.55066e-07
1.2109e-06
7.18661e-07
9.2569e-07
6.59852e-07
6.39507e-07
5.99635e-07
3.81674e-07
5.61867e-07
1.72729e-07
5.30228e-07
-4.81174e-10
5.14925e-07
-1.24134e-07
4.95123e-07
-1.76145e-07
3.7789e-07
-2.46969e-07
1.42222e-07
-7.76214e-07
7.25597e-08
-1.76783e-06
1.45501e-07
-2.31923e-06
2.63803e-07
-2.44062e-06
3.97805e-07
-2.41252e-06
5.36527e-07
-2.31447e-06
6.7554e-07
-2.1868e-06
8.18204e-07
-2.04729e-06
-1.91169e-06
9.60066e-07
2.91379e-07
1.15061e-06
4.734e-07
1.72026e-06
6.00673e-07
1.84239e-06
7.0825e-07
1.81046e-06
8.06436e-07
1.72077e-06
8.8783e-07
1.58637e-06
9.44612e-07
1.40844e-06
9.67436e-07
1.18922e-06
9.53629e-07
9.40152e-07
9.09906e-07
6.82212e-07
8.55017e-07
4.41297e-07
7.95495e-07
2.30062e-07
7.434e-07
5.40189e-08
7.03323e-07
-8.25007e-08
6.68938e-07
-1.41225e-07
5.91941e-07
-1.68606e-07
3.87009e-07
-5.70296e-07
2.91363e-07
-1.67147e-06
3.37067e-07
-2.36437e-06
4.3938e-07
-2.54259e-06
5.61193e-07
-2.53429e-06
6.87515e-07
-2.44148e-06
8.15649e-07
-2.31335e-06
9.42102e-07
-2.1752e-06
-2.03678e-06
1.06881e-06
3.37339e-07
8.10691e-07
5.74616e-07
1.48196e-06
7.29502e-07
1.68648e-06
8.50044e-07
1.69185e-06
9.52074e-07
1.61818e-06
1.03773e-06
1.50189e-06
1.09979e-06
1.34695e-06
1.13221e-06
1.15669e-06
1.1318e-06
9.3993e-07
1.10311e-06
7.11639e-07
1.05195e-06
4.88043e-07
9.93981e-07
2.91598e-07
9.33213e-07
1.14485e-07
8.84874e-07
-3.44744e-08
8.46651e-07
-1.02528e-07
7.78276e-07
-1.00124e-07
6.02304e-07
-3.93921e-07
5.01612e-07
-1.57023e-06
5.28851e-07
-2.39118e-06
6.16408e-07
-2.62997e-06
7.24491e-07
-2.64242e-06
8.382e-07
-2.55481e-06
9.51594e-07
-2.42789e-06
1.06568e-06
-2.28733e-06
-2.14873e-06
1.1778e-06
3.30876e-07
4.77119e-07
6.46819e-07
1.16464e-06
8.45564e-07
1.48762e-06
9.79754e-07
1.55592e-06
1.08553e-06
1.51324e-06
1.16998e-06
1.41727e-06
1.23153e-06
1.28458e-06
1.26667e-06
1.12051e-06
1.27297e-06
9.3193e-07
1.25151e-06
7.29675e-07
1.21162e-06
5.30297e-07
1.15537e-06
3.43712e-07
1.09753e-06
1.72e-07
1.04682e-06
1.56977e-08
1.00501e-06
-6.19913e-08
9.38671e-07
-3.41148e-08
7.92393e-07
-2.4735e-07
7.01319e-07
-1.47891e-06
7.19801e-07
-2.40946e-06
7.94023e-07
-2.70412e-06
8.87471e-07
-2.73593e-06
9.86472e-07
-2.65425e-06
1.08704e-06
-2.52728e-06
1.18655e-06
-2.38738e-06
-2.2477e-06
1.28682e-06
2.59728e-07
2.08028e-07
6.54159e-07
7.67494e-07
9.2653e-07
1.21323e-06
1.09372e-06
1.38896e-06
1.20641e-06
1.39901e-06
1.28987e-06
1.33255e-06
1.34897e-06
1.22379e-06
1.38297e-06
1.08412e-06
1.39125e-06
9.20863e-07
1.37672e-06
7.43068e-07
1.33978e-06
5.61301e-07
1.2919e-06
3.92464e-07
1.23813e-06
2.23733e-07
1.18671e-06
6.51053e-08
1.14029e-06
-1.67941e-08
1.07727e-06
2.77892e-08
9.62441e-07
-1.32981e-07
8.9237e-07
-1.40879e-06
9.08394e-07
-2.42539e-06
9.70251e-07
-2.76602e-06
1.04846e-06
-2.81431e-06
1.13293e-06
-2.73852e-06
1.21849e-06
-2.61344e-06
1.30575e-06
-2.47332e-06
-2.33567e-06
1.39411e-06
1.3132e-07
5.85033e-08
5.71049e-07
3.22989e-07
9.46115e-07
8.36607e-07
1.1738e-06
1.15859e-06
1.30897e-06
1.2624e-06
1.39635e-06
1.24272e-06
1.45417e-06
1.16321e-06
1.48673e-06
1.04827e-06
1.49572e-06
9.08441e-07
1.48243e-06
7.5153e-07
1.45321e-06
5.90786e-07
1.4086e-06
4.32193e-07
1.36063e-06
2.6975e-07
1.31069e-06
1.13231e-07
1.26096e-06
3.06137e-08
1.20461e-06
8.26041e-08
1.11923e-06
-4.81149e-08
1.07604e-06
-1.3658e-06
1.0939e-06
-2.44337e-06
1.14391e-06
-2.81617e-06
1.2062e-06
-2.87679e-06
1.27477e-06
-2.80745e-06
1.3464e-06
-2.6844e-06
1.42014e-06
-2.54717e-06
-2.41272e-06
1.49808e-06
-6.15523e-08
8.42113e-08
3.36507e-07
-8.31196e-08
8.55062e-07
3.13274e-07
1.19061e-06
8.20885e-07
1.37626e-06
1.07379e-06
1.48138e-06
1.13421e-06
1.54328e-06
1.09742e-06
1.57623e-06
1.01121e-06
1.58573e-06
8.94763e-07
1.57635e-06
7.58275e-07
1.54823e-06
6.12685e-07
1.51071e-06
4.68711e-07
1.46821e-06
3.09434e-07
1.42134e-06
1.57207e-07
1.37084e-06
7.90587e-08
1.32339e-06
1.28157e-07
1.26532e-06
8.74599e-09
1.25242e-06
-1.35333e-06
1.27449e-06
-2.46567e-06
1.31318e-06
-2.85511e-06
1.35852e-06
-2.92242e-06
1.41111e-06
-2.86006e-06
1.46758e-06
-2.7412e-06
1.52911e-06
-2.60798e-06
-2.47998e-06
1.59675e-06
-1.01584e-07
1.50864e-07
7.74479e-08
-2.72641e-07
6.09551e-07
-2.24673e-07
1.0945e-06
3.31913e-07
1.37774e-06
7.86099e-07
1.52725e-06
9.80536e-07
1.60631e-06
1.01381e-06
1.64556e-06
9.67357e-07
1.65843e-06
8.77254e-07
1.65077e-06
7.60606e-07
1.62847e-06
6.33528e-07
1.59494e-06
4.97434e-07
1.55902e-06
3.42383e-07
1.51724e-06
1.96602e-07
1.4659e-06
1.2765e-07
1.42826e-06
1.63635e-07
1.40007e-06
3.57171e-08
1.41993e-06
-1.37377e-06
1.44735e-06
-2.49344e-06
1.47519e-06
-2.88326e-06
1.50277e-06
-2.95029e-06
1.53935e-06
-2.89698e-06
1.5815e-06
-2.78311e-06
1.63063e-06
-2.65712e-06
-2.53792e-06
1.68908e-06
-5.30805e-08
1.67374e-07
1.4343e-08
-3.48736e-07
3.11509e-07
-5.30023e-07
8.55147e-07
-2.1941e-07
1.27308e-06
3.64125e-07
1.50629e-06
7.41996e-07
1.62627e-06
8.88759e-07
1.68398e-06
9.0448e-07
1.70561e-06
8.50818e-07
1.70434e-06
7.58258e-07
1.68561e-06
6.46552e-07
1.65954e-06
5.21002e-07
1.62889e-06
3.6991e-07
1.59376e-06
2.2874e-07
1.54285e-06
1.76198e-07
1.511e-06
1.93245e-07
1.52167e-06
2.35282e-08
1.57608e-06
-1.42888e-06
1.60838e-06
-2.52618e-06
1.62533e-06
-2.90058e-06
1.63736e-06
-2.9627e-06
1.65833e-06
-2.91812e-06
1.68599e-06
-2.81104e-06
1.72406e-06
-2.69489e-06
-2.58769e-06
1.77403e-06
3.95104e-08
1.00011e-07
1.25497e-07
-4.43509e-07
2.11027e-07
-6.23804e-07
5.57479e-07
-5.71063e-07
1.05242e-06
-1.39245e-07
1.39714e-06
3.9194e-07
1.58494e-06
6.9558e-07
1.67922e-06
8.05135e-07
1.7196e-06
8.05439e-07
1.72761e-06
7.45085e-07
1.71855e-06
6.52766e-07
1.70146e-06
5.33858e-07
1.67765e-06
3.90472e-07
1.64754e-06
2.56085e-07
1.60062e-06
2.20461e-07
1.56735e-06
2.24053e-07
1.63021e-06
-4.08452e-08
1.71901e-06
-1.51848e-06
1.75412e-06
-2.56181e-06
1.76014e-06
-2.90703e-06
1.76058e-06
-2.9635e-06
1.76559e-06
-2.9235e-06
1.7799e-06
-2.82537e-06
1.80789e-06
-2.723e-06
-2.63024e-06
1.85065e-06
8.41084e-08
5.73252e-10
1.93055e-07
-5.5917e-07
2.73567e-07
-7.08794e-07
4.05245e-07
-7.12463e-07
7.85562e-07
-5.25608e-07
1.20462e-06
-3.40388e-08
1.47493e-06
4.19502e-07
1.61996e-06
6.54797e-07
1.68921e-06
7.3121e-07
1.71575e-06
7.14456e-07
1.71998e-06
6.43786e-07
1.71578e-06
5.34439e-07
1.70257e-06
4.00436e-07
1.67808e-06
2.77984e-07
1.6451e-06
2.50828e-07
1.60089e-06
2.65795e-07
1.72947e-06
-1.70974e-07
1.84807e-06
-1.63792e-06
1.88293e-06
-2.59724e-06
1.87861e-06
-2.90315e-06
1.86799e-06
-2.95329e-06
1.85802e-06
-2.91379e-06
1.86096e-06
-2.82863e-06
1.88114e-06
-2.74311e-06
-2.66685e-06
1.91772e-06
1.09224e-07
-1.25035e-07
2.24048e-07
-6.7959e-07
3.21287e-07
-8.12248e-07
4.09184e-07
-8.04212e-07
6.06644e-07
-7.3173e-07
9.79856e-07
-4.155e-07
1.30816e-06
8.51468e-08
1.50559e-06
4.51839e-07
1.61234e-06
6.19548e-07
1.66499e-06
6.56983e-07
1.68919e-06
6.15458e-07
1.69614e-06
5.2431e-07
1.6922e-06
4.01224e-07
1.68003e-06
2.87257e-07
1.67128e-06
2.5706e-07
1.61829e-06
3.1617e-07
1.81934e-06
-3.73441e-07
1.96155e-06
-1.78096e-06
1.99315e-06
-2.62939e-06
1.97712e-06
-2.88758e-06
1.95442e-06
-2.93096e-06
1.93281e-06
-2.89256e-06
1.92829e-06
-2.82421e-06
1.94265e-06
-2.75779e-06
-2.69835e-06
1.9742e-06
1.22158e-07
-2.53099e-07
2.19189e-07
-7.81639e-07
3.11803e-07
-9.08153e-07
4.09339e-07
-9.07688e-07
5.29428e-07
-8.57558e-07
7.86511e-07
-6.81221e-07
1.11258e-06
-2.48446e-07
1.34891e-06
2.09457e-07
1.48988e-06
4.73202e-07
1.57133e-06
5.70782e-07
1.61746e-06
5.65917e-07
1.64002e-06
4.96528e-07
1.65333e-06
3.84821e-07
1.65774e-06
2.80252e-07
1.65065e-06
2.61455e-07
1.63793e-06
3.26305e-07
1.8982e-06
-6.35062e-07
2.05644e-06
-1.94002e-06
2.07928e-06
-2.65282e-06
2.0524e-06
-2.86117e-06
2.01803e-06
-2.897e-06
1.99032e-06
-2.86511e-06
1.9815e-06
-2.81583e-06
1.99205e-06
-2.7683e-06
-2.72542e-06
2.01887e-06
1.0943e-07
-3.75316e-07
1.73728e-07
-8.51174e-07
2.40346e-07
-9.79849e-07
3.30947e-07
-1.00139e-06
4.36269e-07
-9.7069e-07
6.07973e-07
-8.60326e-07
8.89969e-07
-5.39967e-07
1.15228e-06
-5.99214e-08
1.32319e-06
2.96553e-07
1.43286e-06
4.5625e-07
1.50076e-06
4.91135e-07
1.5461e-06
4.4908e-07
1.5747e-06
3.51973e-07
1.59237e-06
2.59528e-07
1.57927e-06
2.71781e-07
1.67145e-06
2.31843e-07
1.97076e-06
-9.35568e-07
2.12873e-06
-2.09875e-06
2.13902e-06
-2.66366e-06
2.10351e-06
-2.82612e-06
2.06152e-06
-2.85536e-06
2.03158e-06
-2.83557e-06
2.02098e-06
-2.80528e-06
2.02813e-06
-2.77599e-06
-2.74803e-06
2.05076e-06
6.82831e-08
-4.4767e-07
8.92158e-08
-8.76985e-07
1.16955e-07
-1.01109e-06
1.67836e-07
-1.05942e-06
2.43742e-07
-1.05102e-06
3.67899e-07
-9.94037e-07
6.02078e-07
-7.84584e-07
8.93979e-07
-3.60413e-07
1.10471e-06
7.87353e-08
1.24156e-06
3.12749e-07
1.34069e-06
3.89883e-07
1.41087e-06
3.71264e-07
1.46352e-06
2.96352e-07
1.49013e-06
2.30112e-07
1.47103e-06
2.88591e-07
1.71179e-06
-1.06024e-08
2.03635e-06
-1.26111e-06
2.17534e-06
-2.23843e-06
2.17332e-06
-2.66216e-06
2.13118e-06
-2.7844e-06
2.087e-06
-2.81155e-06
2.05736e-06
-2.80614e-06
2.04564e-06
-2.79411e-06
2.0504e-06
-2.78061e-06
-2.76693e-06
2.06889e-06
3.25048e-10
-4.60021e-07
-2.63356e-08
-8.55637e-07
-4.5765e-08
-9.96863e-07
-4.67077e-08
-1.06186e-06
-2.23704e-08
-1.08587e-06
4.8233e-08
-1.07393e-06
2.15454e-07
-9.61539e-07
5.10158e-07
-6.66974e-07
7.96884e-07
-2.15604e-07
9.86288e-07
1.18561e-07
1.12157e-06
2.45349e-07
1.22987e-06
2.61781e-07
1.31196e-06
2.09959e-07
1.35511e-06
1.84311e-07
1.37229e-06
2.69295e-07
1.75912e-06
-3.98612e-07
2.08671e-06
-1.58949e-06
2.19675e-06
-2.34903e-06
2.18267e-06
-2.64853e-06
2.1382e-06
-2.74031e-06
2.09526e-06
-2.7689e-06
2.06709e-06
-2.77835e-06
2.05538e-06
-2.7823e-06
2.05771e-06
-2.78364e-06
-2.78259e-06
2.07344e-06
-7.44446e-08
-3.86694e-07
-1.51317e-07
-7.81592e-07
-2.1578e-07
-9.36102e-07
-2.67092e-07
-1.02007e-06
-2.84809e-07
-1.0717e-06
-2.66463e-07
-1.10181e-06
-1.95978e-07
-1.04274e-06
4.12579e-09
-8.77349e-07
3.55113e-07
-5.77069e-07
6.33731e-07
-1.68711e-07
8.28996e-07
4.90488e-08
9.85099e-07
9.77482e-08
1.09479e-06
9.80582e-08
1.12322e-06
1.54112e-07
1.31464e-06
7.67428e-08
1.81564e-06
-9.00289e-07
2.12201e-06
-1.89638e-06
2.19756e-06
-2.42502e-06
2.17167e-06
-2.62299e-06
2.12579e-06
-2.69472e-06
2.08594e-06
-2.72932e-06
2.06063e-06
-2.75311e-06
2.04925e-06
-2.77155e-06
2.05122e-06
-2.78527e-06
-2.79678e-06
2.06494e-06
-1.45086e-07
-2.50431e-07
-2.65125e-07
-6.657e-07
-3.65386e-07
-8.40267e-07
-4.38826e-07
-9.44878e-07
-4.92826e-07
-1.02801e-06
-5.14204e-07
-1.08387e-06
-4.95572e-07
-1.06702e-06
-4.32202e-07
-9.48827e-07
-2.39473e-07
-7.79871e-07
1.03865e-07
-5.16879e-07
4.13978e-07
-2.71844e-07
6.6245e-07
-1.49818e-07
8.07676e-07
-4.95485e-08
8.87249e-07
7.35617e-08
1.3666e-06
-4.03028e-07
1.89522e-06
-1.42925e-06
2.13745e-06
-2.13893e-06
2.17227e-06
-2.46012e-06
2.13779e-06
-2.58875e-06
2.09375e-06
-2.65089e-06
2.05952e-06
-2.69525e-06
2.03817e-06
-2.73208e-06
2.02934e-06
-2.76241e-06
2.03145e-06
-2.78815e-06
-2.81015e-06
2.04501e-06
-2.00218e-07
-4.70791e-08
-3.54945e-07
-5.1062e-07
-4.73569e-07
-7.19884e-07
-5.62658e-07
-8.64176e-07
-6.1716e-07
-9.70123e-07
-6.51967e-07
-1.0523e-06
-6.51268e-07
-1.06951e-06
-5.86327e-07
-1.0155e-06
-4.69172e-07
-8.99461e-07
-2.69518e-07
-7.23624e-07
1.05402e-08
-5.46231e-07
2.67032e-07
-4.12587e-07
4.39228e-07
-2.21347e-07
8.3134e-07
-3.18212e-07
1.53559e-06
-1.10721e-06
1.97784e-06
-1.87161e-06
2.12038e-06
-2.28164e-06
2.12084e-06
-2.46075e-06
2.08212e-06
-2.55017e-06
2.04475e-06
-2.61365e-06
2.01804e-06
-2.66865e-06
2.00243e-06
-2.71638e-06
1.99668e-06
-2.75728e-06
2.00125e-06
-2.79217e-06
-2.82416e-06
2.01483e-06
-2.34041e-07
1.87028e-07
-4.02109e-07
-3.41303e-07
-5.31015e-07
-5.92477e-07
-6.10049e-07
-7.78255e-07
-6.50449e-07
-9.33277e-07
-6.55521e-07
-1.04564e-06
-6.23208e-07
-1.09933e-06
-5.49959e-07
-1.0863e-06
-4.33955e-07
-1.01292e-06
-2.52152e-07
-8.9989e-07
-5.55686e-08
-7.46035e-07
1.23608e-07
-5.82363e-07
4.80362e-07
-5.76575e-07
1.19031e-06
-1.02734e-06
1.77347e-06
-1.69009e-06
2.02275e-06
-2.12085e-06
2.06781e-06
-2.32674e-06
2.04341e-06
-2.4364e-06
2.00884e-06
-2.51565e-06
1.98203e-06
-2.58688e-06
1.96467e-06
-2.65131e-06
1.95565e-06
-2.70756e-06
1.95493e-06
-2.75604e-06
1.96143e-06
-2.79941e-06
-2.83852e-06
1.97612e-06
-1.94382e-07
3.94299e-07
-3.94522e-07
-1.35678e-07
-5.25625e-07
-4.55344e-07
-5.98206e-07
-7.0735e-07
-6.05599e-07
-9.19048e-07
-5.6125e-07
-1.08534e-06
-4.72493e-07
-1.18271e-06
-3.47912e-07
-1.20488e-06
-1.93635e-07
-1.16059e-06
-3.0011e-08
-1.05804e-06
1.60267e-07
-9.24535e-07
4.60741e-07
-8.8081e-07
1.01276e-06
-1.12557e-06
1.58638e-06
-1.59979e-06
1.88894e-06
-1.99216e-06
1.97293e-06
-2.20464e-06
1.96869e-06
-2.32241e-06
1.94396e-06
-2.41162e-06
1.92343e-06
-2.49506e-06
1.91031e-06
-2.57372e-06
1.90322e-06
-2.64419e-06
1.90162e-06
-2.70572e-06
1.90504e-06
-2.76001e-06
1.91473e-06
-2.80836e-06
-2.85394e-06
1.92981e-06
-1.01881e-07
5.10554e-07
-3.4189e-07
1.13e-07
-4.7849e-07
-3.14957e-07
-5.37415e-07
-6.38712e-07
-5.21852e-07
-9.29833e-07
-4.29133e-07
-1.17001e-06
-2.79741e-07
-1.32362e-06
-1.06372e-07
-1.3685e-06
6.98084e-08
-1.32681e-06
2.58117e-07
-1.23522e-06
5.18926e-07
-1.18122e-06
9.36985e-07
-1.29238e-06
1.40765e-06
-1.59409e-06
1.71841e-06
-1.90936e-06
1.83463e-06
-2.10776e-06
1.85251e-06
-2.22218e-06
1.84457e-06
-2.31425e-06
1.83729e-06
-2.40416e-06
1.83478e-06
-2.49241e-06
1.83516e-06
-2.57397e-06
1.83749e-06
-2.6464e-06
1.84202e-06
-2.71034e-06
1.85008e-06
-2.76738e-06
1.86137e-06
-2.82029e-06
-2.8696e-06
1.87751e-06
-5.24058e-08
5.76086e-07
-2.51093e-07
3.27628e-07
-3.97335e-07
-1.58843e-07
-4.61448e-07
-5.68855e-07
-4.30757e-07
-9.51151e-07
-3.08774e-07
-1.28186e-06
-1.26796e-07
-1.49422e-06
6.82401e-08
-1.55164e-06
2.69561e-07
-1.51705e-06
5.12202e-07
-1.47048e-06
8.41864e-07
-1.50279e-06
1.2182e-06
-1.66613e-06
1.51115e-06
-1.88457e-06
1.65144e-06
-2.04826e-06
1.69472e-06
-2.15026e-06
1.71027e-06
-2.23724e-06
1.72267e-06
-2.32631e-06
1.73633e-06
-2.41754e-06
1.74911e-06
-2.50496e-06
1.75988e-06
-2.58455e-06
1.76938e-06
-2.65572e-06
1.77917e-06
-2.71977e-06
1.79002e-06
-2.77865e-06
1.80382e-06
-2.83323e-06
-2.8861e-06
1.82012e-06
-2.67389e-08
6.20532e-07
-1.3344e-07
4.49341e-07
-2.84724e-07
3.58087e-09
-3.70862e-07
-4.7383e-07
-3.45554e-07
-9.65923e-07
-2.1094e-07
-1.4065e-06
-1.5451e-08
-1.67839e-06
1.93949e-07
-1.75007e-06
4.2702e-07
-1.74099e-06
7.0431e-07
-1.73994e-06
1.0114e-06
-1.80629e-06
1.27658e-06
-1.92706e-06
1.43332e-06
-2.03904e-06
1.50582e-06
-2.1193e-06
1.54893e-06
-2.19246e-06
1.58459e-06
-2.2723e-06
1.61738e-06