/*--------------------------------*- C++ -*----------------------------------*\
  =========                 |
  \\      /  F ield         | OpenFOAM: The Open Source CFD Toolbox
   \\    /   O peration     | Website:  https://openfoam.org
    \\  /    A nd           | Version:  13
     \\/     M anipulation  |
\*---------------------------------------------------------------------------*/
FoamFile
{
    format      ascii;
    class       volVectorField;
    location    "28";
    object      U;
}
// * * * * * * * * * * * * * * * * * * * * * * * * * * * * * * * * * * * * * //

dimensions      [0 1 -1 0 0 0 0];

internalField   nonuniform List<vector> 
6440
(
(-0.0234742 0.0369938 0)
(-0.138594 0.0481691 0)
(-0.260837 0.0450099 -5.31136e-16)
(-0.338112 0.0267955 4.5241e-16)
(-0.369557 0.00216334 0)
(-0.367902 -0.0277606 -8.61158e-16)
(-0.349646 -0.0600892 8.68841e-16)
(-0.322558 -0.0841174 0)
(-0.288135 -0.0832547 0)
(-0.246848 -0.0742718 0)
(-0.202631 -0.0553839 2.33594e-15)
(-0.172138 -0.0211557 -5.18979e-15)
(-0.162692 0.000623992 2.59828e-15)
(-0.160402 0.00386394 0)
(-0.155316 -0.00537991 -4.90245e-15)
(-0.141808 -0.0281723 4.85252e-15)
(-0.118339 -0.0517819 0)
(-0.0859312 -0.0692466 0)
(-0.0421805 -0.0800174 0)
(0.0104358 -0.0802185 0)
(0.0608843 -0.0751094 -8.38783e-15)
(0.1134 -0.0657414 1.33408e-14)
(0.155098 -0.0491955 -6.53914e-15)
(0.160571 -0.0129666 -6.61068e-15)
(0.0876968 0.0425285 7.33858e-15)
(-0.0444108 0.142874 0)
(-0.171897 0.167018 0)
(-0.253677 0.15171 -6.43733e-16)
(-0.281853 0.137162 7.7564e-16)
(-0.271197 0.1225 0)
(-0.265343 0.0979779 -2.13343e-15)
(-0.287449 0.0470272 4.02204e-15)
(-0.30261 -0.0293169 -1.52517e-15)
(-0.298814 -0.0877593 0)
(-0.294318 -0.0825078 0)
(-0.287113 -0.0521495 0)
(-0.286303 -0.00830839 -1.84191e-15)
(-0.29049 0.00178047 1.69181e-15)
(-0.285617 -0.017482 1.6596e-15)
(-0.273491 -0.0538108 -1.69088e-15)
(-0.256396 -0.0890312 0)
(-0.221968 -0.114517 0)
(-0.177465 -0.13326 0)
(-0.128122 -0.145938 0)
(-0.0659065 -0.146568 0)
(0.0101025 -0.124866 -6.67922e-15)
(0.0941753 -0.0764718 6.83176e-15)
(0.172477 0.00689599 0)
(0.198157 0.0897127 -6.41824e-15)
(0.11559 0.151083 1.20556e-14)
(-0.0219272 0.185794 0)
(-0.0716734 0.204105 0)
(-0.0175696 0.183619 0)
(0.124781 0.127203 0)
(0.254114 0.0849228 0)
(0.310134 0.0957677 0)
(0.29274 0.153046 7.42544e-16)
(0.189638 0.216358 -7.78111e-16)
(0.000873151 0.208988 0)
(-0.196578 0.0565521 0)
(-0.240125 0.0126661 0)
(-0.258903 0.0397394 0)
(-0.284102 0.0262404 0)
(-0.290164 -0.0277883 1.61462e-15)
(-0.286296 -0.0868077 -4.72729e-15)
(-0.267032 -0.129592 3.11469e-15)
(-0.233335 -0.157532 0)
(-0.198501 -0.178172 0)
(-0.160971 -0.195976 0)
(-0.115609 -0.205314 0)
(-0.0544351 -0.189041 0)
(0.03378 -0.116988 0)
(0.15293 0.0368934 8.18193e-15)
(0.210336 0.176404 -6.04961e-15)
(0.124189 0.239787 5.32081e-15)
(0.0049005 0.191044 0)
(0.111484 0.164638 0)
(0.3244 0.0128049 -3.18097e-16)
(0.504292 -0.0866646 2.35651e-16)
(0.606021 -0.071409 0)
(0.605827 0.034969 -4.97368e-16)
(0.560944 0.187365 4.92287e-16)
(0.448335 0.341627 0)
(0.256612 0.439393 1.07498e-15)
(-0.0184815 0.358145 -1.49544e-15)
(-0.196806 0.17513 1.94598e-15)
(-0.252694 0.133747 -3.04011e-15)
(-0.291882 0.0694781 1.39516e-15)
(-0.314392 -0.0401516 0)
(-0.311046 -0.126622 0)
(-0.284898 -0.168629 0)
(-0.257911 -0.184536 3.05114e-15)
(-0.233839 -0.204293 -2.89238e-19)
(-0.209601 -0.235913 -3.28658e-15)
(-0.178003 -0.261804 0)
(-0.128042 -0.255614 0)
(-0.0433797 -0.177087 4.58579e-15)
(0.101497 0.0326453 -7.29113e-15)
(0.211311 0.248444 -6.05583e-15)
(0.126188 0.290672 9.67586e-15)
(0.0676205 0.137158 0)
(0.303005 -0.137691 0)
(0.519128 -0.306201 -2.00935e-16)
(0.648085 -0.282438 1.86859e-16)
(0.700632 -0.137875 0)
(0.66231 0.0691558 -5.01259e-16)
(0.584373 0.294699 4.63226e-16)
(0.456226 0.505298 0)
(0.277595 0.651947 9.10448e-16)
(0.0228857 0.620584 -1.05613e-15)
(-0.207098 0.386417 1.22234e-15)
(-0.293066 0.24334 -2.31387e-15)
(-0.332759 0.0965606 1.22327e-15)
(-0.347187 -0.0756084 0)
(-0.339001 -0.17128 2.68818e-15)
(-0.32315 -0.186228 -2.69806e-15)
(-0.312122 -0.188901 2.81123e-15)
(-0.302606 -0.22282 -3.33125e-19)
(-0.289427 -0.276832 -2.83162e-15)
(-0.264546 -0.321056 0)
(-0.218003 -0.326168 2.96694e-15)
(-0.133228 -0.247528 -6.78587e-19)
(0.0238083 -0.00932148 -5.67547e-15)
(0.197854 0.283077 -6.96845e-15)
(0.117856 0.324989 4.51189e-15)
(0.132672 -0.210748 0)
(0.350828 -0.509713 0)
(0.500945 -0.490304 -1.80907e-16)
(0.566868 -0.331267 2.032e-16)
(0.56343 -0.0929999 0)
(0.514958 0.160334 -6.14221e-16)
(0.427037 0.414452 5.33713e-16)
(0.303863 0.658023 0)
(0.149409 0.837465 9.29384e-16)
(-0.0654097 0.810444 -8.59942e-16)
(-0.266075 0.561545 8.38312e-16)
(-0.351505 0.314839 -1.82831e-15)
(-0.378783 0.0553327 1.15573e-15)
(-0.382165 -0.158333 0)
(-0.381176 -0.183855 -2.52999e-15)
(-0.382839 -0.183392 2.52804e-15)
(-0.388337 -0.201006 2.56213e-15)
(-0.392265 -0.257738 -3.04995e-19)
(-0.386882 -0.329396 -2.43409e-15)
(-0.3649 -0.387423 0)
(-0.319641 -0.402743 -2.43904e-15)
(-0.23096 -0.328472 5.52447e-15)
(-0.0621432 -0.0802238 -4.05664e-15)
(0.170264 0.297095 -8.135e-15)
(0.100132 0.341887 4.34154e-15)
(0.127969 -0.561543 0)
(0.267761 -0.707707 0)
(0.331731 -0.525227 -2.02757e-16)
(0.352978 -0.241104 2.89872e-16)
(0.327082 0.0451574 0)
(0.263717 0.317012 -9.54312e-16)
(0.181422 0.563002 7.19415e-16)
(0.0688816 0.798172 0)
(-0.0512778 0.970052 7.30627e-16)
(-0.200403 0.944681 -6.34489e-16)
(-0.334758 0.678715 6.57704e-16)
(-0.398181 0.315908 -1.60109e-15)
(-0.418801 -0.055789 1.21792e-15)
(-0.42965 -0.188868 0)
(-0.445572 -0.182019 0)
(-0.464637 -0.190499 0)
(-0.482508 -0.223897 2.29593e-15)
(-0.494769 -0.297498 -2.46469e-19)
(-0.493439 -0.381403 -2.07867e-15)
(-0.476021 -0.451094 0)
(-0.434645 -0.478427 0)
(-0.344608 -0.415124 2.21179e-15)
(-0.162018 -0.165819 -3.03671e-15)
(0.142041 0.310809 -9.42745e-15)
(0.0823051 0.346599 4.36083e-15)
(0.0863334 -0.80285 0)
(0.132392 -0.759276 0)
(0.104308 -0.420456 -2.74298e-16)
(0.124526 -0.0541774 6.64875e-16)
(0.121512 0.22639 0)
(0.0286958 0.437662 -7.702e-16)
(-0.0670765 0.671424 4.86658e-16)
(-0.164167 0.904601 0)
(-0.248795 1.04729 5.66441e-16)
(-0.328852 1.01036 -5.29926e-16)
(-0.394431 0.71447 5.77692e-16)
(-0.430715 0.257263 -1.53768e-15)
(-0.46141 -0.157949 1.38696e-15)
(-0.505223 -0.170249 0)
(-0.544457 -0.167069 0)
(-0.574512 -0.188352 0)
(-0.598652 -0.239742 1.9696e-15)
(-0.611555 -0.334415 -1.78992e-19)
(-0.610983 -0.426918 -1.7472e-15)
(-0.59943 -0.507369 0)
(-0.564588 -0.551496 0)
(-0.478346 -0.510639 1.77667e-15)
(-0.294254 -0.284662 -2.27455e-15)
(0.0114981 0.18782 -6.0761e-15)
(0.0686374 0.329548 8.94343e-15)
(0.047262 -0.953137 0)
(0.00201915 -0.76081 0)
(-0.093941 -0.254156 0)
(-0.0417477 0.043462 0)
(-0.0805167 0.275234 7.94997e-16)
(-0.1871 0.509391 -4.95606e-16)
(-0.286113 0.75946 3.48227e-16)
(-0.365136 0.98511 -2.71948e-16)
(-0.416355 1.07334 4.76764e-16)
(-0.44616 1.01057 2.63502e-19)
(-0.460305 0.680229 1.64344e-19)
(-0.480619 0.180905 -7.78519e-16)
(-0.549907 -0.0921053 -1.40364e-15)
(-0.638864 -0.0920253 2.24529e-15)
(-0.685864 -0.110947 -2.92296e-15)
(-0.714898 -0.177039 1.74669e-15)
(-0.736693 -0.268943 0)
(-0.742977 -0.36867 1.52403e-15)
(-0.738878 -0.467716 -1.45148e-15)
(-0.728908 -0.560677 1.39628e-15)
(-0.700407 -0.626409 -2.01024e-19)
(-0.623692 -0.619164 -1.66773e-19)
(-0.449013 -0.44111 -1.74046e-15)
(-0.142125 -0.00649407 0)
(0.0507016 0.292594 -5.10357e-15)
(0.0224379 -1.03147 0)
(-0.0878411 -0.683663 0)
(-0.240811 -0.132422 0)
(-0.256677 0.147664 0)
(-0.312902 0.368821 -4.80177e-16)
(-0.409526 0.61882 3.40083e-16)
(-0.496819 0.863358 -2.64242e-16)
(-0.552818 1.04343 2.23816e-16)
(-0.572545 1.07384 0)
(-0.562093 0.962961 -4.38675e-16)
(-0.545086 0.580245 -1.5207e-19)
(-0.596729 0.145845 7.40964e-16)
(-0.742511 0.0524464 0)
(-0.833854 0.00727616 -8.37835e-16)
(-0.865832 -0.0700406 2.32112e-15)
(-0.886837 -0.180978 -1.38931e-15)
(-0.891183 -0.292943 1.29923e-15)
(-0.878081 -0.405325 -1.2412e-15)
(-0.859634 -0.51662 0)
(-0.842535 -0.62135 -1.17715e-15)
(-0.817948 -0.706322 2.33852e-15)
(-0.756078 -0.735727 -2.41133e-15)
(-0.605451 -0.623808 1.38312e-15)
(-0.30966 -0.253913 0)
(0.0139982 0.22092 -6.4589e-15)
(0.0182496 -1.042 0)
(-0.11251 -0.609239 0)
(-0.336301 -0.0147161 0)
(-0.409535 0.277914 0)
(-0.491527 0.509091 3.57872e-16)
(-0.588384 0.749237 -2.70833e-16)
(-0.659754 0.956997 2.23401e-16)
(-0.690512 1.0675 -2.00569e-16)
(-0.681524 1.04402 3.94507e-16)
(-0.654141 0.85834 1.79598e-19)
(-0.673212 0.52386 -4.92889e-16)
(-0.813472 0.294546 0)
(-0.978523 0.225432 -5.91366e-16)
(-1.04965 0.118056 1.1558e-15)
(-1.06758 -0.0381835 -1.79669e-15)
(-1.05995 -0.192195 1.09911e-15)
(-1.02513 -0.334356 0)
(-0.977822 -0.466643 1.03079e-15)
(-0.935762 -0.586854 -1.02624e-15)
(-0.907258 -0.694379 1.02887e-15)
(-0.883996 -0.786286 -5.85844e-21)
(-0.837411 -0.844464 -1.06169e-15)
(-0.722871 -0.803438 0)
(-0.476645 -0.539813 0)
(-0.0883181 -0.0104535 0)
(0.0378474 -0.914897 0)
(-0.0805176 -0.506565 0)
(-0.27575 0.0149949 3.87825e-16)
(-0.400405 0.356241 -2.14411e-16)
(-0.530327 0.623212 0)
(-0.644363 0.850596 2.36057e-16)
(-0.722219 1.01303 -4.0111e-16)
(-0.762164 1.07473 1.83495e-16)
(-0.778927 1.02097 0)
(-0.830701 0.86253 0)
(-0.965281 0.671893 0)
(-1.14061 0.530519 3.94727e-16)
(-1.23912 0.37233 -4.11698e-16)
(-1.24768 0.153664 -4.55879e-16)
(-1.206 -0.0613344 -4.92997e-16)
(-1.14804 -0.24727 9.44301e-16)
(-1.07845 -0.413133 9.28484e-16)
(-1.00666 -0.557001 -9.2884e-16)
(-0.948671 -0.676719 0)
(-0.910583 -0.773935 0)
(-0.882987 -0.854828 9.79288e-16)
(-0.841392 -0.920928 -1.00056e-15)
(-0.759486 -0.931815 0)
(-0.592298 -0.774761 1.32513e-15)
(-0.192555 -0.275061 -5.69e-15)
(0.0368046 -0.652834 0)
(-0.0790504 -0.304307 0)
(-0.237419 0.134891 -2.53767e-16)
(-0.434547 0.502092 1.5315e-16)
(-0.615479 0.787204 2.24208e-16)
(-0.769772 1.00193 -3.63141e-16)
(-0.899948 1.13745 3.14471e-16)
(-1.01452 1.17769 -1.43805e-16)
(-1.13577 1.12245 0)
(-1.26159 0.990935 2.77806e-16)
(-1.36184 0.809016 -2.92731e-16)
(-1.4018 0.587055 -3.24233e-16)
(-1.33723 0.324527 9.95136e-20)
(-1.2844 0.0637041 9.22269e-16)
(-1.22923 -0.155674 -1.41163e-15)
(-1.15806 -0.346697 9.15343e-16)
(-1.07955 -0.514472 0)
(-1.00341 -0.657241 0)
(-0.939891 -0.77118 0)
(-0.893103 -0.853596 9.46775e-16)
(-0.851869 -0.911233 -9.74419e-16)
(-0.796123 -0.96099 0)
(-0.72206 -0.992688 0)
(-0.641877 -0.916049 -1.18667e-15)
(-0.270617 -0.514151 -1.80106e-19)
(-0.0238014 -0.324268 0)
(-0.226945 0.0450718 0)
(-0.478099 0.44561 1.46775e-16)
(-0.726495 0.782753 -1.00806e-16)
(-0.949056 1.04673 -1.58666e-16)
(-1.14679 1.23268 2.70615e-16)
(-1.31719 1.3288 -2.44716e-16)
(-1.44116 1.32705 1.17104e-16)
(-1.50885 1.20798 0)
(-1.52026 1.00454 -2.54583e-16)
(-1.44387 0.72835 2.90942e-16)
(-1.38256 0.420692 3.51475e-16)
(-1.3304 0.144528 -4.41152e-16)
(-1.29856 -0.0778617 -4.87197e-16)
(-1.2484 -0.279471 -4.62912e-16)
(-1.18321 -0.463174 8.93936e-16)
(-1.10965 -0.622613 8.82007e-16)
(-1.03344 -0.757609 -8.84243e-16)
(-0.963421 -0.864725 0)
(-0.901995 -0.938131 -9.29898e-16)
(-0.839417 -0.978467 1.93385e-15)
(-0.760227 -1.00378 -1.00203e-15)
(-0.679564 -1.03126 0)
(-0.656083 -0.995523 1.12365e-15)
(-0.319924 -0.700803 -1.63452e-15)
(-0.139506 0.05895 1.85336e-16)
(-0.460593 0.460617 8.18563e-17)
(-0.771355 0.809348 -1.01997e-16)
(-1.04042 1.096 1.54722e-16)
(-1.26211 1.30957 -2.15701e-19)
(-1.43244 1.43561 -1.1665e-16)
(-1.53407 1.45793 1.10904e-16)
(-1.55915 1.35559 1.11739e-16)
(-1.55467 1.14453 -2.40092e-16)
(-1.48128 0.849259 2.74281e-16)
(-1.3956 0.535297 -3.31181e-16)
(-1.36277 0.267525 0)
(-1.35578 0.0454949 -4.92794e-16)
(-1.33091 -0.175787 9.38384e-16)
(-1.28814 -0.392034 -4.39556e-16)
(-1.22797 -0.585074 8.44514e-16)
(-1.15312 -0.747213 -8.30504e-16)
(-1.07279 -0.877308 0)
(-0.993055 -0.976337 0)
(-0.915011 -1.044 8.9243e-16)
(-0.833563 -1.08001 7.42227e-19)
(-0.740138 -1.09339 -9.87906e-16)
(-0.66194 -1.10269 0)
(-0.654727 -1.08031 0)
(-0.345528 -0.846077 -1.4337e-15)
(-0.227171 0.451547 0)
(-0.59872 0.871682 0)
(-0.916682 1.15408 0)
(-1.17417 1.37551 0)
(-1.36696 1.51694 0)
(-1.49067 1.55799 0)
(-1.53542 1.47988 0)
(-1.52186 1.28104 0)
(-1.4546 0.988514 2.63933e-16)
(-1.36635 0.678138 -3.16587e-16)
(-1.34427 0.427474 0)
(-1.36007 0.219901 0)
(-1.3616 -0.00803183 0)
(-1.34551 -0.257676 0)
(-1.315 -0.498583 0)
(-1.25752 -0.715681 0)
(-1.178 -0.893146 -7.85693e-16)
(-1.08927 -1.0265 1.58689e-15)
(-0.998636 -1.12042 -1.63723e-15)
(-0.906582 -1.18111 8.59637e-16)
(-0.810789 -1.21449 9.13604e-16)
(-0.710746 -1.22748 -9.7459e-16)
(-0.642366 -1.22804 -1.03491e-15)
(-0.663087 -1.20012 1.09587e-15)
(-0.330819 -0.986907 -1.33148e-15)
(-0.253546 0.930259 0)
(-0.604258 1.23852 0)
(-0.898503 1.45625 7.51461e-17)
(-1.12458 1.6065 -6.45561e-17)
(-1.28267 1.66865 0)
(-1.36978 1.62051 1.13596e-16)
(-1.38834 1.44567 -2.33949e-16)
(-1.34398 1.16252 1.29324e-16)
(-1.28221 0.843316 3.04105e-16)
(-1.26435 0.585353 -3.66698e-16)
(-1.2962 0.390284 -4.30893e-16)
(-1.3173 0.179752 1.01946e-15)
(-1.32202 -0.0688896 -5.06834e-16)
(-1.32623 -0.331309 -4.50997e-16)
(-1.31455 -0.598208 -4.09055e-16)
(-1.26803 -0.844036 7.63763e-16)
(-1.18495 -1.04179 0)
(-1.08493 -1.18604 7.55444e-16)
(-0.982026 -1.27829 -7.85849e-16)
(-0.878357 -1.3325 0)
(-0.774708 -1.3566 8.9487e-16)
(-0.673148 -1.36294 -1.92701e-15)
(-0.611518 -1.35326 1.04066e-15)
(-0.643467 -1.30713 1.11229e-15)
(-0.267639 -1.12143 -2.59853e-15)
(-0.222146 1.33374 5.63543e-17)
(-0.513799 1.55372 4.26982e-17)
(-0.771469 1.70727 -7.18817e-17)
(-0.956673 1.78913 1.28093e-16)
(-1.08139 1.77693 -2.41842e-16)
(-1.14537 1.64724 1.20556e-16)
(-1.15366 1.3919 0)
(-1.12882 1.05719 2.9153e-16)
(-1.12271 0.752678 -3.51043e-16)
(-1.16415 0.544522 -4.15292e-16)
(-1.20843 0.360103 4.82769e-16)
(-1.22014 0.137801 0)
(-1.23156 -0.113773 5.32601e-16)
(-1.25196 -0.389934 -4.62275e-16)
(-1.26665 -0.683138 8.09378e-16)
(-1.24024 -0.955881 1.09438e-18)
(-1.15803 -1.17753 -1.4338e-15)
(-1.04676 -1.33386 7.25939e-16)
(-0.931066 -1.42593 -7.57268e-16)
(-0.819619 -1.46806 -1.30178e-18)
(-0.714203 -1.4741 1.75198e-15)
(-0.618103 -1.45596 -9.58882e-16)
(-0.558523 -1.41892 0)
(-0.55919 -1.34154 0)
(-0.166312 -1.15938 0)
(-0.163202 1.63291 0)
(-0.38386 1.81194 0)
(-0.59394 1.90659 0)
(-0.73493 1.93076 0)
(-0.830425 1.85982 0)
(-0.882154 1.66971 0)
(-0.902137 1.36005 -1.4106e-16)
(-0.914758 1.00008 1.65604e-16)
(-0.95663 0.714402 4.0405e-16)
(-1.02193 0.53055 -4.79906e-16)
(-1.06207 0.350078 -5.6296e-16)
(-1.06868 0.133563 6.82602e-16)
(-1.08307 -0.11929 0)
(-1.10807 -0.419466 -4.93472e-16)
(-1.14969 -0.741244 4.14502e-16)
(-1.15348 -1.04517 0)
(-1.08023 -1.2956 0)
(-0.962354 -1.46835 7.07379e-16)
(-0.836372 -1.5582 -1.48735e-15)
(-0.715789 -1.58333 7.99381e-16)
(-0.606741 -1.56014 8.81494e-16)
(-0.512075 -1.49994 -1.86547e-15)
(-0.447093 -1.40511 9.64936e-16)
(-0.404507 -1.25235 0)
(-0.0237778 -0.952286 -1.33965e-15)
(-0.101391 1.82993 0)
(-0.248739 2.00362 0)
(-0.403504 2.04849 7.1002e-17)
(-0.497703 2.02592 -6.81808e-17)
(-0.563697 1.91107 0)
(-0.606098 1.67902 1.41559e-16)
(-0.641157 1.33267 -3.15727e-16)
(-0.687487 0.957463 1.89959e-16)
(-0.754581 0.690809 4.81671e-16)
(-0.817597 0.535747 -5.93214e-16)
(-0.842687 0.372447 0)
(-0.848163 0.174886 8.61208e-16)
(-0.869557 -0.077645 -7.24054e-16)
(-0.885106 -0.405165 -5.65263e-16)
(-0.957471 -0.760752 -4.44144e-16)
(-1.00312 -1.11064 7.53845e-16)
(-0.948909 -1.40522 0)
(-0.832711 -1.60504 7.04015e-16)
(-0.700043 -1.69424 -7.43816e-16)
(-0.569296 -1.70313 0)
(-0.449012 -1.6526 0)
(-0.342675 -1.55404 0)
(-0.248155 -1.40443 0)
(-0.150473 -1.18072 9.59153e-16)
(0.175604 -0.785382 -2.88635e-15)
(-0.0448214 1.93504 0)
(-0.121244 2.12275 0)
(-0.218972 2.14072 0)
(-0.266045 2.09397 0)
(-0.30153 1.96305 0)
(-0.328575 1.72282 0)
(-0.365221 1.36671 0)
(-0.423569 0.966143 0)
(-0.491707 0.661263 0)
(-0.546314 0.49108 0)
(-0.567854 0.369782 0)
(-0.570864 0.227894 0)
(-0.582933 0.000489281 0)
(-0.581245 -0.322837 0)
(-0.698837 -0.709506 0)
(-0.803593 -1.12977 0)
(-0.778899 -1.50462 0)
(-0.672311 -1.75826 0)
(-0.537817 -1.86008 0)
(-0.399858 -1.85829 0)
(-0.268693 -1.79161 0)
(-0.141832 -1.67652 0)
(-0.00704011 -1.51797 0)
(0.156949 -1.31288 0)
(0.420787 -1.02553 0)
(0.00337777 1.95728 0)
(-0.0056008 2.18824 0)
(-0.046689 2.18121 0)
(-0.0485028 2.12332 0)
(-0.0494157 1.99349 0)
(-0.0506265 1.76887 0)
(-0.0721665 1.43221 0)
(-0.129958 1.01891 0)
(-0.215787 0.649396 0)
(-0.326236 0.41653 0)
(-0.375736 0.353519 0)
(-0.266615 0.357296 0)
(-0.216947 0.175304 0)
(-0.159552 -0.0724234 0)
(-0.345179 -0.436318 0)
(-0.560541 -0.938673 0)
(-0.602999 -1.4489 0)
(-0.528905 -1.82469 0)
(-0.403765 -1.98089 0)
(-0.262209 -1.9935 0)
(-0.120975 -1.93002 0)
(0.0209961 -1.81574 0)
(0.170433 -1.66744 0)
(0.337565 -1.49886 0)
(0.55418 -1.32996 0)
(0.0447881 1.90474 0)
(0.0985045 2.1676 0)
(0.111117 2.16826 0)
(0.147953 2.11127 0)
(0.183145 1.98849 0)
(0.214454 1.78878 0)
(0.224676 1.49564 0)
(0.194723 1.11627 0)
(0.116097 0.716567 0)
(-0.0208766 0.391614 0)
(-0.153248 0.205146 0)
(-0.145394 0.0809495 0)
(-0.0543346 0.00638413 0)
(0.142961 -0.0503248 0)
(0.061367 -0.18275 0)
(-0.252381 -0.670362 0)
(-0.370956 -1.32409 0)
(-0.341999 -1.86342 0)
(-0.237416 -2.10618 0)
(-0.102467 -2.13806 0)
(0.0404 -2.07772 0)
(0.186408 -1.96658 0)
(0.337458 -1.82809 0)
(0.500647 -1.67797 0)
(0.682958 -1.53001 0)
(0.0848277 1.78097 0)
(0.195442 2.10665 0)
(0.255621 2.12315 0)
(0.323855 2.0621 0)
(0.389898 1.94843 0)
(0.450161 1.772 0)
(0.490528 1.52187 0)
(0.494979 1.2012 0)
(0.451422 0.840958 0)
(0.351071 0.506961 0)
(0.24559 0.248617 0)
(0.199608 0.0673096 0)
(0.217217 -0.0563446 0)
(0.305879 -0.120934 0)
(0.330276 -0.166632 0)
(0.0772359 -0.372688 0)
(-0.115829 -1.09605 0)
(-0.135422 -1.85299 0)
(-0.0570453 -2.21053 0)
(0.0663037 -2.27185 0)
(0.203388 -2.22059 0)
(0.344631 -2.115 0)
(0.489781 -1.98324 0)
(0.640247 -1.84245 0)
(0.797246 -1.70729 0)
(0.124278 1.58731 0)
(0.288671 1.99642 0)
(0.392 2.03872 0)
(0.48544 1.98315 0)
(0.573498 1.87916 0)
(0.653358 1.72313 0)
(0.714896 1.50771 0)
(0.744899 1.23549 0)
(0.73166 0.92659 0)
(0.671834 0.623787 0)
(0.59574 0.363799 0)
(0.533632 0.159742 0)
(0.503473 0.0106307 0)
(0.513991 -0.09876 0)
(0.511057 -0.14021 0)
(0.353278 -0.213436 0)
(0.144329 -0.832312 0)
(0.0785201 -1.7971 0)
(0.132411 -2.29116 0)
(0.240567 -2.39163 0)
(0.367089 -2.35589 0)
(0.499915 -2.25602 0)
(0.635042 -2.12778 0)
(0.772477 -1.99039 0)
(0.911686 -1.85618 0)
(0.163812 1.32369 0)
(0.379669 1.82998 0)
(0.523206 1.92316 0)
(0.636085 1.88276 0)
(0.736953 1.78948 0)
(0.827126 1.65096 0)
(0.898946 1.46356 0)
(0.942981 1.22952 0)
(0.949765 0.962264 0)
(0.916626 0.689754 0)
(0.859693 0.442514 0)
(0.797042 0.237792 0)
(0.747401 0.0740538 0)
(0.722128 -0.0514029 0)
(0.701851 -0.100694 0)
(0.577351 -0.138544 0)
(0.380579 -0.618406 0)
(0.290113 -1.70069 0)
(0.32363 -2.34328 0)
(0.416715 -2.4964 0)
(0.531554 -2.47986 0)
(0.653233 -2.38599 0)
(0.776893 -2.25967 0)
(0.900875 -2.12271 0)
(1.02443 -1.9876 0)
(0.194075 0.986391 0)
(0.462519 1.62748 0)
(0.647231 1.78435 0)
(0.778449 1.76892 0)
(0.885841 1.68896 0)
(0.9781 1.56644 0)
(1.05204 1.40267 0)
(1.10086 1.20003 0)
(1.11786 0.968472 0)
(1.10221 0.727045 0)
(1.06069 0.49831 0)
(1.00355 0.301713 0)
(0.95013 0.135469 0)
(0.911626 -0.0012978 0)
(0.88334 -0.0604741 0)
(0.777598 -0.0671467 0)
(0.591048 -0.429788 0)
(0.492571 -1.59435 0)
(0.513725 -2.36803 0)
(0.594152 -2.58453 0)
(0.696605 -2.59119 0)
(0.806037 -2.5035 0)
(0.916693 -2.37802 0)
(1.02729 -2.24052 0)
(1.13742 -2.10375 0)
(0.191223 0.587361 0)
(0.517478 1.34157 0)
(0.754466 1.61205 0)
(0.90968 1.64467 0)
(1.02223 1.58482 0)
(1.1134 1.4791 0)
(1.18485 1.33645 0)
(1.23298 1.16073 0)
(1.25395 0.959878 0)
(1.24714 0.747162 0)
(1.21789 0.539922 0)
(1.16947 0.35463 0)
(1.11814 0.18885 0)
(1.07904 0.0449067 0)
(1.04405 -0.0213147 0)
(0.94822 0.00269505 0)
(0.775842 -0.271504 0)
(0.684311 -1.49445 0)
(0.701909 -2.38702 0)
(0.772144 -2.66227 0)
(0.861774 -2.6893 0)
(0.957612 -2.60752 0)
(1.05492 -2.4828 0)
(1.15216 -2.34453 0)
(1.24942 -2.20698 0)
(0.136085 0.246333 0)
(0.514556 0.958659 0)
(0.820863 1.38162 0)
(1.01787 1.50116 0)
(1.14391 1.47806 0)
(1.23523 1.39356 0)
(1.3037 1.27177 0)
(1.34951 1.12023 0)
(1.37079 0.945859 0)
(1.36937 0.758571 0)
(1.34705 0.57181 0)
(1.30484 0.3988 0)
(1.26078 0.235504 0)
(1.22731 0.08913 0)
(1.18592 0.0202416 0)
(1.08807 0.0664798 0)
(0.939027 -0.14171 0)
(0.866049 -1.41154 0)
(0.887947 -2.40071 0)
(0.949561 -2.72781 0)
(1.02574 -2.77313 0)
(1.10731 -2.69742 0)
(1.19039 -2.57372 0)
(1.27427 -2.43562 0)
(1.35968 -2.29854 0)
(0.0455494 0.143418 0)
(0.42624 0.54873 0)
(0.816692 1.06293 0)
(1.08232 1.31456 0)
(1.2404 1.35999 0)
(1.34047 1.3085 0)
(1.40911 1.21038 0)
(1.45371 1.08193 0)
(1.4751 0.931173 0)
(1.47562 0.766073 0)
(1.45798 0.598062 0)
(1.4214 0.437436 0)
(1.3857 0.278043 0)
(1.36121 0.133222 0)
(1.31486 0.0640253 0)
(1.21139 0.121725 0)
(1.08681 -0.0405495 0)
(1.03996 -1.35288 0)
(1.0711 -2.41493 0)
(1.12506 -2.78159 0)
(1.18707 -2.84184 0)
(1.25327 -2.77239 0)
(1.32171 -2.6507 0)
(1.39217 -2.51396 0)
(1.466 -2.37941 0)
(-0.0587719 0.196366 0)
(0.186555 0.0946403 0)
(0.692845 0.616774 0)
(1.06961 1.03939 0)
(1.29213 1.20649 0)
(1.41893 1.2145 0)
(1.496 1.14901 0)
(1.5428 1.04536 0)
(1.56518 0.917039 0)
(1.56893 0.772115 0)
(1.55376 0.621306 0)
(1.52054 0.472952 0)
(1.49554 0.317562 0)
(1.48159 0.174073 0)
(1.43235 0.105727 0)
(1.32483 0.165222 0)
(1.22229 0.0296624 0)
(1.20654 -1.32426 0)
(1.24986 -2.43349 0)
(1.29654 -2.82425 0)
(1.34367 -2.89476 0)
(1.3938 -2.83193 0)
(1.44697 -2.71328 0)
(1.50403 -2.57993 0)
(1.56693 -2.45016 0)
(-0.0642951 0.132814 0)
(0.0261534 -0.228931 0)
(0.395567 0.00756962 0)
(0.929895 0.611962 0)
(1.26479 0.97269 0)
(1.45016 1.08822 0)
(1.55278 1.07717 0)
(1.60977 1.00619 0)
(1.6373 0.901887 0)
(1.64441 0.776586 0)
(1.63179 0.642483 0)
(1.60306 0.505311 0)
(1.58667 0.351806 0)
(1.58232 0.208842 0)
(1.53357 0.142073 0)
(1.42574 0.193585 0)
(1.34506 0.0685798 0)
(1.36489 -1.32916 0)
(1.42164 -2.45841 0)
(1.46103 -2.85751 0)
(1.49295 -2.93149 0)
(1.52657 -2.87532 0)
(1.5645 -2.76152 0)
(1.60853 -2.63371 0)
(1.66117 -2.5115 0)
(-0.028852 0.356812 0)
(0.0579567 -0.284587 0)
(0.130344 -0.520581 0)
(0.637786 0.00890813 0)
(1.11667 0.594735 0)
(1.4045 0.888169 0)
(1.56084 0.972721 0)
(1.64335 0.953413 0)
(1.68331 0.880468 0)
(1.69741 0.777282 0)
(1.6882 0.660284 0)
(1.6645 0.532134 0)
(1.65472 0.381187 0)
(1.65756 0.240835 0)
(1.61248 0.179749 0)
(1.50764 0.207877 0)
(1.45208 0.0731031 0)
(1.51327 -1.36959 0)
(1.58306 -2.49038 0)
(1.61475 -2.87961 0)
(1.63201 -2.94731 0)
(1.64961 -2.90315 0)
(1.6726 -2.79547 0)
(1.70437 -2.67615 0)
(1.74779 -2.5643 0)
(0.0183435 0.284614 0)
(0.100217 -0.360498 0)
(0.17184 -0.592786 0)
(0.334505 -0.552114 0)
(0.848571 0.0725953 0)
(1.26052 0.577351 0)
(1.5012 0.807349 0)
(1.6302 0.870034 0)
(1.69492 0.843908 0)
(1.72096 0.769805 0)
(1.717 0.670688 0)
(1.70311 0.550602 0)
(1.70175 0.405369 0)
(1.70819 0.268845 0)
(1.66384 0.223455 0)
(1.56309 0.223779 0)
(1.54267 0.0301925 0)
(1.6505 -1.44665 0)
(1.73103 -2.52791 0)
(1.75451 -2.89281 0)
(1.7583 -2.95305 0)
(1.76072 -2.9162 0)
(1.76944 -2.81621 0)
(1.79028 -2.70838 0)
(1.82584 -2.60968 0)
(0.0370697 0.148307 0)
(0.119841 -0.476805 0)
(0.22659 -0.66227 0)
(0.297967 -0.70149 0)
(0.568266 -0.458323 0)
(1.03055 0.150308 0)
(1.36846 0.561397 0)
(1.56066 0.739248 0)
(1.66088 0.781489 0)
(1.70593 0.746611 0)
(1.71402 0.668179 0)
(1.7122 0.555742 0)
(1.72447 0.419893 0)
(1.73317 0.291293 0)
(1.68967 0.254257 0)
(1.59552 0.236312 0)
(1.62315 -0.0707152 0)
(1.77642 -1.5581 0)
(1.86345 -2.56864 0)
(1.8784 -2.89663 0)
(1.86911 -2.9516 0)
(1.85682 -2.91583 0)
(1.85302 -2.825 0)
(1.86506 -2.73207 0)
(1.8942 -2.64877 0)
(0.0436503 -0.0124877 0)
(0.120109 -0.616899 0)
(0.245686 -0.776405 0)
(0.345531 -0.778593 0)
(0.464718 -0.715277 0)
(0.790618 -0.306915 0)
(1.17913 0.231914 0)
(1.43538 0.548955 0)
(1.57816 0.680601 0)
(1.64958 0.697308 0)
(1.67777 0.644926 0)
(1.69342 0.546803 0)
(1.71028 0.422127 0)
(1.72026 0.30294 0)
(1.68497 0.262526 0)
(1.60907 0.268922 0)
(1.6971 -0.2485 0)
(1.88942 -1.69665 0)
(1.97833 -2.60758 0)
(1.98311 -2.89317 0)
(1.96 -2.9398 0)
(1.93476 -2.90054 0)
(1.92179 -2.82404 0)
(1.9278 -2.74914 0)
(1.95203 -2.68258 0)
(0.0422337 -0.181934 0)
(0.105023 -0.749962 0)
(0.225822 -0.887393 0)
(0.35263 -0.869665 0)
(0.441936 -0.807067 0)
(0.622011 -0.623689 0)
(0.968087 -0.127121 0)
(1.26965 0.313889 0)
(1.45043 0.538467 0)
(1.55164 0.615438 0)
(1.60287 0.598901 0)
(1.6333 0.523116 0)
(1.66367 0.408257 0)
(1.68923 0.299643 0)
(1.64635 0.258275 0)
(1.59666 0.35435 0)
(1.76526 -0.487678 0)
(1.98734 -1.85249 0)
(2.07164 -2.63941 0)
(2.06339 -2.86928 0)
(2.02748 -2.91172 0)
(1.99345 -2.8753 0)
(1.97576 -2.81745 0)
(1.97816 -2.76179 0)
(1.99824 -2.7119 0)
(0.0297029 -0.346656 0)
(0.0677784 -0.849378 0)
(0.167035 -0.97355 0)
(0.29259 -0.970658 0)
(0.370009 -0.908434 0)
(0.467401 -0.777535 0)
(0.728449 -0.437482 0)
(1.05855 0.0481607 0)
(1.28094 0.365539 0)
(1.41235 0.505338 0)
(1.48461 0.529712 0)
(1.53132 0.479937 0)
(1.58128 0.375892 0)
(1.61413 0.274962 0)
(1.57868 0.271234 0)
(1.56763 0.339595 0)
(1.8323 -0.769354 0)
(2.06871 -2.01794 0)
(2.13854 -2.65482 0)
(2.11691 -2.84058 0)
(2.07222 -2.8734 0)
(2.03456 -2.84746 0)
(2.0154 -2.8086 0)
(2.01548 -2.77134 0)
(2.03183 -2.73696 0)
(0.00211593 -0.474986 0)
(0.00574588 -0.906148 0)
(0.0724946 -1.02746 0)
(0.17426 -1.04226 0)
(0.213416 -0.991649 0)
(0.236974 -0.894021 0)
(0.405141 -0.660764 0)
(0.762837 -0.219659 0)
(1.05887 0.176066 0)
(1.21968 0.371774 0)
(1.3164 0.435019 0)
(1.38694 0.407872 0)
(1.45559 0.318215 0)
(1.49835 0.217567 0)
(1.48148 0.239412 0)
(1.53972 0.176796 0)
(1.90335 -1.08851 0)
(2.12763 -2.17304 0)
(2.17711 -2.66324 0)
(2.14545 -2.80389 0)
(2.09715 -2.83154 0)
(2.05966 -2.81901 0)
(2.04066 -2.7986 0)
(2.03892 -2.77806 0)
(2.0517 -2.75791 0)
(-0.0383841 -0.54207 0)
(-0.0787366 -0.918493 0)
(-0.0479935 -1.03384 0)
(0.0173472 -1.07143 0)
(0.000466581 -1.05233 0)
(-0.0532429 -0.997521 0)
(0.00545032 -0.842819 0)
(0.313196 -0.502197 0)
(0.715652 -0.0535667 0)
(0.951635 0.212061 0)
(1.08364 0.307207 0)
(1.185 0.300611 0)
(1.28037 0.226038 0)
(1.33827 0.164092 0)
(1.36064 0.245251 0)
(1.54596 -0.190825 0)
(1.97388 -1.43801 0)
(2.16023 -2.30811 0)
(2.19098 -2.66279 0)
(2.15265 -2.76405 0)
(2.10435 -2.7901 0)
(2.06908 -2.79169 0)
(2.05077 -2.78799 0)
(2.04755 -2.78233 0)
(2.0576 -2.77533 0)
(-0.0863448 -0.534985 0)
(-0.168199 -0.888192 0)
(-0.17143 -1.01495 0)
(-0.152058 -1.06266 0)
(-0.219119 -1.07985 0)
(-0.322669 -1.0711 0)
(-0.371383 -0.984259 0)
(-0.216352 -0.773738 0)
(0.193136 -0.366927 0)
(0.559668 -0.0133769 0)
(0.756292 0.1222 0)
(0.908882 0.143736 0)
(1.04292 0.0976296 0)
(1.13281 0.106503 0)
(1.15594 0.237843 0)
(1.60134 -0.651522 0)
(2.03618 -1.76992 0)
(2.17791 -2.4081 0)
(2.18455 -2.64249 0)
(2.14 -2.72105 0)
(2.09392 -2.75019 0)
(2.06209 -2.7662 0)
(2.0452 -2.77738 0)
(2.04159 -2.78501 0)
(2.05017 -2.79037 0)
(-0.131742 -0.462116 0)
(-0.246376 -0.81313 0)
(-0.285833 -0.950842 0)
(-0.30826 -1.02734 0)
(-0.399868 -1.08063 0)
(-0.530273 -1.10978 0)
(-0.612126 -1.06105 0)
(-0.558516 -0.93271 0)
(-0.478275 -0.824933 0)
(-0.075773 -0.43879 0)
(0.282249 -0.161628 0)
(0.523678 -0.0909721 0)
(0.737076 -0.0652195 0)
(0.856211 0.0410618 0)
(1.08189 -0.104676 0)
(1.71221 -1.18964 0)
(2.08646 -2.05485 0)
(2.168 -2.46308 0)
(2.15308 -2.61506 0)
(2.10634 -2.67654 0)
(2.0659 -2.71402 0)
(2.03898 -2.74373 0)
(2.02482 -2.76789 0)
(2.02226 -2.78754 0)
(2.03077 -2.80435 0)
(-0.166007 -0.324205 0)
(-0.310079 -0.685062 0)
(-0.383302 -0.856218 0)
(-0.431176 -0.974928 0)
(-0.523009 -1.06395 0)
(-0.642325 -1.12268 0)
(-0.72212 -1.10833 0)
(-0.702395 -1.03491 0)
(-0.581633 -0.922273 0)
(-0.439263 -0.804578 0)
(-0.190267 -0.598462 0)
(0.0814952 -0.438261 0)
(0.346822 -0.231649 0)
(0.554505 -0.0136336 0)
(1.25421 -0.767408 0)
(1.87155 -1.70555 0)
(2.09431 -2.25075 0)
(2.12965 -2.48073 0)
(2.09697 -2.5773 0)
(2.05452 -2.63573 0)
(2.02223 -2.68405 0)
(2.00167 -2.72579 0)
(1.99167 -2.76111 0)
(1.9916 -2.79131 0)
(2.00111 -2.81834 0)
(-0.187463 -0.141639 0)
(-0.351114 -0.525883 0)
(-0.445692 -0.741644 0)
(-0.502835 -0.90779 0)
(-0.574335 -1.04138 0)
(-0.64799 -1.12911 0)
(-0.687065 -1.15307 0)
(-0.638759 -1.11244 0)
(-0.526752 -1.03565 0)
(-0.383596 -0.951226 0)
(-0.164753 -0.816025 0)
(-0.0392274 -0.660525 0)
(0.179698 -0.332557 0)
(0.864577 -0.641612 0)
(1.60487 -1.4657 0)
(1.98199 -2.05826 0)
(2.06615 -2.33861 0)
(2.05767 -2.46279 0)
(2.02011 -2.53853 0)
(1.9878 -2.60335 0)
(1.96591 -2.6623 0)
(1.95311 -2.7139 0)
(1.9485 -2.75834 0)
(1.95172 -2.79736 0)
(1.96267 -2.83289 0)
(-0.178525 0.0908395 0)
(-0.350371 -0.345998 0)
(-0.459909 -0.608861 0)
(-0.522183 -0.832315 0)
(-0.563261 -1.02317 0)
(-0.572741 -1.15881 0)
(-0.5431 -1.21817 0)
(-0.441773 -1.21061 0)
(-0.293681 -1.15011 0)
(-0.106135 -1.04523 0)
(0.0627254 -0.912456 0)
(0.242954 -0.735212 0)
(0.712475 -0.842723 0)
(1.3875 -1.39304 0)
(1.83078 -1.91969 0)
(1.9643 -2.20819 0)
(1.98011 -2.34464 0)
(1.95458 -2.43143 0)
(1.92854 -2.50914 0)
(1.91135 -2.58332 0)
(1.90128 -2.65048 0)
(1.89687 -2.70909 0)
(1.89782 -2.76024 0)
(1.90444 -2.8059 0)
(1.9169 -2.84813 0)
(-0.123342 0.244283 0)
(-0.299619 -0.132732 0)
(-0.432198 -0.456692 0)
(-0.498726 -0.746235 0)
(-0.51312 -1.01124 0)
(-0.467296 -1.21899 0)
(-0.356337 -1.33528 0)
(-0.198138 -1.35536 0)
(-0.0119155 -1.30287 0)
(0.167983 -1.20278 0)
(0.360767 -1.09801 0)
(0.69871 -1.12569 0)
(1.21251 -1.43518 0)
(1.64223 -1.83309 0)
(1.82512 -2.09624 0)
(1.85872 -2.23333 0)
(1.85183 -2.32549 0)
(1.83929 -2.41171 0)
(1.83329 -2.49737 0)
(1.83184 -2.57751 0)
(1.8327 -2.64872 0)
(1.83573 -2.71109 0)
(1.84168 -2.76638 0)
(1.85121 -2.81672 0)
(1.86492 -2.86394 0)
(-0.0755013 0.396819 0)
(-0.194899 0.125656 0)
(-0.362105 -0.287052 0)
(-0.450242 -0.652428 0)
(-0.454363 -0.998457 0)
(-0.362733 -1.28991 0)
(-0.203405 -1.4743 0)
(-0.0140232 -1.52611 0)
(0.178105 -1.48125 0)
(0.380359 -1.40191 0)
(0.659408 -1.37984 0)
(1.04707 -1.52916 0)
(1.42148 -1.79576 0)
(1.63923 -2.01467 0)
(1.69315 -2.14392 0)