/*--------------------------------*- C++ -*----------------------------------*\
  =========                 |
  \\      /  F ield         | OpenFOAM: The Open Source CFD Toolbox
   \\    /   O peration     | Website:  https://openfoam.org
    \\  /    A nd           | Version:  13
     \\/     M anipulation  |
\*---------------------------------------------------------------------------*/
FoamFile
{
    format      ascii;
    class       volVectorField;
    location    "28";
    object      U;
}
// * * * * * * * * * * * * * * * * * * * * * * * * * * * * * * * * * * * * * //

dimensions      [0 1 -1 0 0 0 0];

internalField   nonuniform List<vector> 
6440
(
(-1.33165e-06 2.64247e-06 0)
(-3.52742e-06 3.28171e-06 0)
(-5.93931e-06 2.97872e-06 -4.73872e-20)
(-7.6281e-06 3.21092e-06 4.72544e-20)
(-9.24944e-06 3.84247e-06 0)
(-1.05932e-05 4.63254e-06 -9.40366e-20)
(-1.15249e-05 5.47152e-06 9.35193e-20)
(-1.20151e-05 6.29482e-06 0)
(-1.20833e-05 7.04966e-06 1.853e-19)
(-1.16964e-05 7.65612e-06 -1.83808e-19)
(-1.08303e-05 8.03678e-06 -1.82625e-19)
(-9.48928e-06 8.12281e-06 -1.59365e-22)
(-7.7072e-06 7.86199e-06 -1.01466e-22)
(-5.55556e-06 7.22448e-06 1.77234e-19)
(-3.14933e-06 6.19921e-06 1.75135e-19)
(-6.66549e-07 4.81226e-06 -1.72936e-19)
(1.68282e-06 3.17451e-06 0)
(3.82286e-06 1.38942e-06 3.35654e-19)
(5.72391e-06 -4.38112e-07 -4.96044e-22)
(7.25027e-06 -2.096e-06 -3.25318e-19)
(8.25792e-06 -3.41919e-06 3.19109e-19)
(8.66692e-06 -4.07694e-06 -6.27335e-19)
(9.37156e-06 -3.87127e-06 3.08168e-19)
(8.31286e-06 -6.26968e-07 -3.01821e-19)
(2.37989e-06 3.94836e-06 1.80238e-22)
(-1.08446e-06 6.75809e-06 0)
(-2.54692e-06 7.82554e-06 0)
(-4.0287e-06 6.43244e-06 -4.9562e-20)
(-4.94997e-06 6.13516e-06 4.94264e-20)
(-5.77986e-06 6.62127e-06 0)
(-6.4613e-06 7.48467e-06 -9.83673e-20)
(-6.92865e-06 8.56392e-06 9.78386e-20)
(-7.10313e-06 9.69047e-06 0)
(-7.05426e-06 1.08543e-05 0)
(-6.81569e-06 1.19731e-05 0)
(-6.37037e-06 1.29299e-05 0)
(-5.70909e-06 1.36201e-05 -1.89616e-19)
(-4.83219e-06 1.39529e-05 1.8768e-19)
(-3.75863e-06 1.38583e-05 0)
(-2.5394e-06 1.33007e-05 1.83656e-19)
(-1.2662e-06 1.22915e-05 -1.81396e-19)
(-4.29097e-08 1.08966e-05 0)
(1.22547e-06 9.13885e-06 0)
(2.76396e-06 7.02088e-06 3.46623e-19)
(4.27233e-06 4.80365e-06 -3.41515e-19)
(5.38717e-06 2.73493e-06 3.34733e-19)
(5.99259e-06 1.33324e-06 -3.29446e-19)
(7.51215e-06 1.07985e-06 -3.22282e-19)
(9.07459e-06 4.52037e-06 8.67234e-22)
(1.72248e-06 1.16165e-05 2.36987e-19)
(-8.91173e-07 9.53867e-06 0)
(-2.29588e-06 1.03249e-05 0)
(-3.47313e-06 7.99403e-06 -4.94099e-20)
(-4.24896e-06 7.21657e-06 4.92833e-20)
(-4.93256e-06 7.44707e-06 0)
(-5.53147e-06 8.22897e-06 -9.81559e-20)
(-6.19791e-06 9.48743e-06 1.95473e-19)
(-6.71366e-06 1.10049e-05 -9.72404e-20)
(-6.94396e-06 1.25839e-05 1.93828e-19)
(-7.04546e-06 1.42054e-05 -1.92397e-19)
(-7.01183e-06 1.57221e-05 -1.91413e-19)
(-6.7828e-06 1.69697e-05 -2.3348e-22)
(-6.3133e-06 1.78001e-05 1.88123e-19)
(-5.57325e-06 1.80864e-05 1.86454e-19)
(-4.56884e-06 1.77387e-05 6.91494e-24)
(-3.35426e-06 1.67191e-05 -1.82283e-19)
(-1.93539e-06 1.49991e-05 0)
(-1.02065e-07 1.25371e-05 3.54399e-19)
(2.16773e-06 9.46875e-06 -3.49661e-19)
(4.27057e-06 6.13651e-06 0)
(5.8824e-06 2.88869e-06 3.37036e-19)
(6.8983e-06 3.62575e-07 -6.62801e-19)
(8.58937e-06 -7.08621e-07 3.25699e-19)
(1.06861e-05 2.05248e-06 -3.18158e-19)
(1.30471e-06 1.14771e-05 2.41745e-19)
(-8.35142e-07 1.19602e-05 0)
(-2.42081e-06 1.21511e-05 0)
(-3.61937e-06 9.11977e-06 -4.9048e-20)
(-4.55422e-06 8.00762e-06 4.89303e-20)
(-5.40748e-06 8.05109e-06 0)
(-6.14544e-06 8.79117e-06 -9.75455e-20)
(-6.94155e-06 1.02002e-05 1.94339e-19)
(-7.82537e-06 1.21946e-05 -9.67221e-20)
(-8.47892e-06 1.43978e-05 0)
(-8.8176e-06 1.66635e-05 0)
(-8.98518e-06 1.88528e-05 0)
(-8.91565e-06 2.07406e-05 -1.89551e-19)
(-8.52697e-06 2.21085e-05 1.8784e-19)
(-7.76412e-06 2.27547e-05 1.86373e-19)
(-6.61704e-06 2.25182e-05 -1.84453e-19)
(-5.14773e-06 2.13081e-05 0)
(-3.31963e-06 1.90295e-05 3.60208e-19)
(-8.20277e-07 1.55307e-05 -3.55862e-19)
(2.18095e-06 1.10418e-05 0)
(4.91366e-06 6.23025e-06 0)
(7.14301e-06 1.56138e-06 0)
(8.69181e-06 -2.12769e-06 0)
(1.03462e-05 -3.81009e-06 0)
(1.27519e-05 -1.77077e-06 -3.19075e-19)
(1.28552e-06 1.02754e-05 5.09813e-22)
(-8.28058e-07 1.44716e-05 0)
(-2.67226e-06 1.39654e-05 0)
(-4.02315e-06 1.04581e-05 -4.85096e-20)
(-5.21411e-06 9.14726e-06 4.84006e-20)
(-6.3155e-06 9.08096e-06 0)
(-7.2618e-06 9.85836e-06 -9.65883e-20)
(-8.17938e-06 1.14493e-05 1.92513e-19)
(-9.20533e-06 1.3799e-05 -9.58583e-20)
(-1.00815e-05 1.66194e-05 0)
(-1.0593e-05 1.9493e-05 0)
(-1.08591e-05 2.22864e-05 0)
(-1.08407e-05 2.47437e-05 -1.88492e-19)
(-1.04411e-05 2.65732e-05 1.86892e-19)
(-9.59524e-06 2.75054e-05 1.85652e-19)
(-8.27434e-06 2.73087e-05 -1.83851e-19)
(-6.53654e-06 2.58414e-05 0)
(-4.37697e-06 2.30026e-05 3.59656e-19)
(-1.48686e-06 1.85842e-05 -3.55565e-19)
(2.1227e-06 1.26999e-05 0)
(5.53132e-06 6.44593e-06 0)
(8.35873e-06 4.4396e-07 0)
(1.04525e-05 -4.32093e-06 0)
(1.21063e-05 -6.52719e-06 0)
(1.49666e-05 -5.27408e-06 -3.18984e-19)
(1.43232e-06 8.98835e-06 2.48496e-19)
(-8.29877e-07 1.71704e-05 0)
(-2.95123e-06 1.59956e-05 0)
(-4.50399e-06 1.2195e-05 -4.78243e-20)
(-5.9768e-06 1.07438e-05 4.77235e-20)
(-7.32458e-06 1.05602e-05 0)
(-8.47287e-06 1.13541e-05 -9.53372e-20)
(-9.49439e-06 1.3098e-05 1.90098e-19)
(-1.05067e-05 1.56993e-05 -9.46991e-20)
(-1.1521e-05 1.89518e-05 1.89304e-19)
(-1.22295e-05 2.23098e-05 -1.88151e-19)
(-1.25302e-05 2.55781e-05 0)
(-1.2532e-05 2.85137e-05 -1.86848e-19)
(-1.21558e-05 3.07724e-05 -3.45374e-22)
(-1.13068e-05 3.20196e-05 3.68471e-19)
(-9.92783e-06 3.19513e-05 -1.82677e-19)
(-8.04781e-06 3.03565e-05 0)
(-5.72118e-06 2.71372e-05 3.58067e-19)
(-2.69298e-06 2.20849e-05 -6.62844e-22)
(1.41984e-06 1.50772e-05 -1.04487e-21)
(5.55327e-06 7.43735e-06 -3.44472e-19)
(9.03985e-06 1.20787e-07 0)
(1.18324e-05 -5.803e-06 0)
(1.36979e-05 -8.59503e-06 0)
(1.71323e-05 -8.14135e-06 -3.18053e-19)
(1.65049e-06 7.90402e-06 2.50701e-19)
(-8.35258e-07 2.00468e-05 0)
(-3.23965e-06 1.83052e-05 0)
(-5.02209e-06 1.43599e-05 -4.70183e-20)
(-6.78557e-06 1.27767e-05 4.69253e-20)
(-8.36824e-06 1.24222e-05 9.39351e-20)
(-9.68828e-06 1.3141e-05 -1.87472e-19)
(-1.07934e-05 1.49209e-05 1.87195e-19)
(-1.17867e-05 1.76057e-05 -9.32941e-20)
(-1.28684e-05 2.10129e-05 0)
(-1.36933e-05 2.47242e-05 1.86157e-19)
(-1.4016e-05 2.83801e-05 -1.84981e-19)
(-1.40592e-05 3.1726e-05 -1.84706e-19)
(-1.37738e-05 3.44123e-05 1.83317e-19)
(-1.30443e-05 3.60567e-05 1.82582e-19)
(-1.17824e-05 3.62898e-05 -1.81009e-19)
(-9.95358e-06 3.48001e-05 0)
(-7.61701e-06 3.14403e-05 3.55581e-19)
(-4.58766e-06 2.60618e-05 -3.51982e-19)
(-1.59041e-07 1.82962e-05 0)
(4.64272e-06 9.22616e-06 3.41314e-19)
(8.89621e-06 5.7941e-07 -3.37393e-19)
(1.25781e-05 -6.59277e-06 0)
(1.48737e-05 -1.00883e-05 0)
(1.90303e-05 -1.04396e-05 -3.16407e-19)
(1.83865e-06 7.15446e-06 8.32894e-22)
(-8.49321e-07 2.3079e-05 0)
(-3.54595e-06 2.09298e-05 0)
(-5.59039e-06 1.69678e-05 -4.61147e-20)
(-7.66217e-06 1.52449e-05 4.6029e-20)
(-9.49325e-06 1.46705e-05 0)
(-1.0992e-05 1.5236e-05 -9.21505e-20)
(-1.22093e-05 1.69454e-05 9.1814e-20)
(-1.32236e-05 1.96029e-05 0)
(-1.41781e-05 2.29972e-05 0)
(-1.48691e-05 2.68608e-05 0)
(-1.51809e-05 3.065e-05 0)
(-1.52895e-05 3.42438e-05 -1.82145e-19)
(-1.51383e-05 3.73083e-05 1.80854e-19)
(-1.46163e-05 3.94247e-05 0)
(-1.36191e-05 4.0149e-05 0)
(-1.205e-05 3.90516e-05 0)
(-9.85232e-06 3.58236e-05 0)
(-6.94381e-06 3.03729e-05 0)
(-2.74969e-06 2.23748e-05 3.4401e-19)
(2.58997e-06 1.21168e-05 -3.40418e-19)
(8.03999e-06 2.00875e-06 0)
(1.27661e-05 -6.49569e-06 0)
(1.56333e-05 -1.07772e-05 0)
(2.07869e-05 -1.19767e-05 -3.14164e-19)
(2.11859e-06 6.78319e-06 2.53139e-19)
(-8.74062e-07 2.62475e-05 0)
(-3.87012e-06 2.38918e-05 0)
(-6.20918e-06 2.00211e-05 -4.51331e-20)
(-8.59972e-06 1.8146e-05 4.50543e-20)
(-1.06781e-05 1.73101e-05 0)
(-1.23368e-05 1.76517e-05 -9.02977e-20)
(-1.36004e-05 1.91671e-05 1.80265e-19)
(-1.45259e-05 2.16322e-05 -8.99177e-20)
(-1.52413e-05 2.48066e-05 0)
(-1.59021e-05 2.85197e-05 0)
(-1.62577e-05 3.22718e-05 1.79703e-19)
(-1.62237e-05 3.59396e-05 -3.57838e-19)
(-1.603e-05 3.9282e-05 1.78038e-19)
(-1.56494e-05 4.1879e-05 1.7782e-19)
(-1.49894e-05 4.32506e-05 -1.76456e-19)
(-1.38981e-05 4.28705e-05 0)
(-1.21269e-05 4.02264e-05 -3.48356e-19)
(-9.51966e-06 3.50236e-05 3.45208e-19)
(-5.72248e-06 2.70907e-05 0)
(5.74213e-08 1.61584e-05 0)
(6.66445e-06 4.5072e-06 0)
(1.24816e-05 -5.50663e-06 3.24357e-19)
(1.62542e-05 -1.08328e-05 -3.20786e-19)
(2.25174e-05 -1.29302e-05 -3.11419e-19)
(2.39825e-06 6.77097e-06 2.53506e-19)
(-9.08014e-07 2.95247e-05 0)
(-4.19892e-06 2.71853e-05 0)
(-6.85489e-06 2.3494e-05 0)
(-9.57143e-06 2.14615e-05 0)
(-1.19065e-05 2.03478e-05 0)
(-1.37335e-05 2.0421e-05 0)
(-1.50517e-05 2.16423e-05 0)
(-1.59127e-05 2.37435e-05 0)
(-1.64329e-05 2.6479e-05 -1.76669e-19)
(-1.67906e-05 2.97089e-05 1.75828e-19)
(-1.67775e-05 3.32309e-05 0)
(-1.64093e-05 3.67862e-05 0)
(-1.60591e-05 4.02453e-05 0)
(-1.57379e-05 4.32423e-05 0)
(-1.53566e-05 4.53001e-05 0)
(-1.47512e-05 4.58398e-05 0)
(-1.36461e-05 4.42216e-05 0)
(-1.1706e-05 3.9853e-05 -3.40728e-19)
(-8.47239e-06 3.24228e-05 3.37678e-19)
(-2.79826e-06 2.14184e-05 0)
(4.53963e-06 8.1603e-06 -3.2727e-19)
(1.17324e-05 -3.62623e-06 3.23974e-19)
(1.66711e-05 -1.02198e-05 0)
(2.41786e-05 -1.34105e-05 0)
(2.73359e-06 7.06092e-06 0)
(-9.46261e-07 3.2864e-05 0)
(-4.50228e-06 3.07695e-05 0)
(-7.46377e-06 2.73238e-05 0)
(-1.04794e-05 2.51326e-05 0)
(-1.3054e-05 2.37495e-05 0)
(-1.50505e-05 2.35568e-05 0)
(-1.64379e-05 2.44671e-05 8.63072e-20)
(-1.72131e-05 2.61533e-05 -8.60027e-20)
(-1.74469e-05 2.83432e-05 -1.7282e-19)
(-1.72999e-05 3.09143e-05 1.72044e-19)
(-1.67582e-05 3.38669e-05 1.72768e-19)
(-1.59227e-05 3.70143e-05 -1.71831e-19)
(-1.51445e-05 4.02376e-05 0)
(-1.45918e-05 4.33925e-05 1.71842e-19)
(-1.42746e-05 4.60639e-05 5.56577e-22)
(-1.40774e-05 4.76404e-05 -1.69975e-19)
(-1.36971e-05 4.73403e-05 0)
(-1.26182e-05 4.43159e-05 -3.36061e-19)
(-1.03033e-05 3.79531e-05 3.3321e-19)
(-5.74988e-06 2.76719e-05 0)
(1.82822e-06 1.34305e-05 0)
(1.07858e-05 -4.35794e-07 3.1782e-19)
(1.69885e-05 -8.72742e-06 -3.14689e-19)
(2.58121e-05 -1.32473e-05 0)
(3.08983e-06 7.74181e-06 0)
(-9.79701e-07 3.61934e-05 0)
(-4.73447e-06 3.45591e-05 0)
(-7.95133e-06 3.13971e-05 0)
(-1.12025e-05 2.90436e-05 0)
(-1.3955e-05 2.74072e-05 0)
(-1.60601e-05 2.69645e-05 0)
(-1.74655e-05 2.75761e-05 0)
(-1.81621e-05 2.88667e-05 0)
(-1.81868e-05 3.05254e-05 0)
(-1.75395e-05 3.23844e-05 0)
(-1.62356e-05 3.44674e-05 -1.68988e-19)
(-1.4675e-05 3.68113e-05 1.68122e-19)
(-1.3195e-05 3.94494e-05 0)
(-1.19812e-05 4.23812e-05 0)
(-1.13212e-05 4.53442e-05 0)
(-1.12523e-05 4.7817e-05 0)
(-1.1524e-05 4.90462e-05 0)
(-1.15607e-05 4.79365e-05 0)
(-1.06444e-05 4.33958e-05 0)
(-7.68675e-06 3.46038e-05 0)
(-5.52168e-07 2.05923e-05 0)
(9.40882e-06 4.46883e-06 -3.14118e-19)
(1.67182e-05 -5.74166e-06 3.11186e-19)
(2.71369e-05 -1.18398e-05 0)
(3.36156e-06 9.40425e-06 0)
(-9.9494e-07 3.94089e-05 0)
(-4.83914e-06 3.84022e-05 0)
(-8.21105e-06 3.55209e-05 0)
(-1.15801e-05 3.29963e-05 0)
(-1.43968e-05 3.11354e-05 8.1694e-20)
(-1.65123e-05 3.04866e-05 -8.15082e-20)
(-1.78589e-05 3.08462e-05 0)
(-1.84074e-05 3.17857e-05 0)
(-1.81584e-05 3.29864e-05 -1.64574e-19)
(-1.70707e-05 3.42662e-05 3.28746e-19)
(-1.51875e-05 3.55446e-05 9.22723e-22)
(-1.27961e-05 3.69336e-05 -1.64226e-19)
(-1.02082e-05 3.86549e-05 0)
(-7.93519e-06 4.08008e-05 0)
(-6.49371e-06 4.34218e-05 1.6471e-19)
(-5.98649e-06 4.63187e-05 -1.63637e-19)
(-6.40769e-06 4.88686e-05 -3.27187e-19)
(-7.43892e-06 4.98929e-05 -5.79949e-22)
(-8.17362e-06 4.79826e-05 3.22893e-19)
(-7.2629e-06 4.16713e-05 3.19771e-19)
(-2.41967e-06 2.95285e-05 -3.17115e-19)
(7.53159e-06 1.19833e-05 3.10202e-19)
(1.67457e-05 -9.76721e-07 -3.07455e-19)
(2.93228e-05 -9.59817e-06 0)
(4.22707e-06 1.1428e-05 0)
(-9.77741e-07 4.23795e-05 0)
(-4.76497e-06 4.20964e-05 0)
(-8.1342e-06 3.94345e-05 0)
(-1.14316e-05 3.67005e-05 0)
(-1.41191e-05 3.46223e-05 0)
(-1.60687e-05 3.38132e-05 0)
(-1.72203e-05 3.40201e-05 0)
(-1.75284e-05 3.477e-05 0)
(-1.69613e-05 3.57041e-05 -1.6021e-19)
(-1.54901e-05 3.66098e-05 1.59603e-19)
(-1.30421e-05 3.72781e-05 0)
(-9.79214e-06 3.79183e-05 0)
(-6.21997e-06 3.8706e-05 0)
(-2.82665e-06 3.97848e-05 0)
(1.14857e-08 4.14337e-05 0)
(1.81116e-06 4.38363e-05 0)
(1.92189e-06 4.67621e-05 0)
(4.87303e-07 4.95922e-05 -3.19452e-19)
(-1.71269e-06 5.06655e-05 3.1713e-19)
(-3.38683e-06 4.78695e-05 0)
(-1.8266e-06 3.90601e-05 0)
(6.68882e-06 2.23682e-05 0)
(1.68178e-05 6.43535e-06 0)
(3.1626e-05 -5.92839e-06 0)
(5.23387e-06 1.37742e-05 0)
(-9.1537e-07 4.49598e-05 0)
(-4.47953e-06 4.54209e-05 0)
(-7.64805e-06 4.2858e-05 0)
(-1.06219e-05 3.98241e-05 0)
(-1.29056e-05 3.74728e-05 0)
(-1.43993e-05 3.64888e-05 0)
(-1.50787e-05 3.6612e-05 0)
(-1.49361e-05 3.73778e-05 0)
(-1.39463e-05 3.8397e-05 0)
(-1.21243e-05 3.93721e-05 0)
(-9.2059e-06 3.99675e-05 1.5654e-19)
(-5.2593e-06 4.02408e-05 -1.55858e-19)
(-8.30942e-07 4.0405e-05 0)
(3.74139e-06 4.05817e-05 0)
(8.05217e-06 4.10414e-05 1.57455e-19)
(1.13244e-05 4.21158e-05 -1.56533e-19)
(1.30478e-05 4.41031e-05 -3.14139e-19)
(1.26565e-05 4.72194e-05 3.12082e-19)
(9.7576e-06 5.04513e-05 0)
(5.78555e-06 5.18405e-05 0)
(3.54964e-06 4.78748e-05 0)
(8.0492e-06 3.47354e-05 3.0185e-19)
(1.70565e-05 1.74457e-05 -5.95291e-19)
(3.45999e-05 -3.71286e-07 2.93446e-19)
(6.83027e-06 1.6766e-05 0)
(-7.98009e-07 4.69921e-05 0)
(-3.97131e-06 4.81447e-05 0)
(-6.72392e-06 4.55261e-05 0)
(-9.08678e-06 4.20403e-05 0)
(-1.06341e-05 3.9269e-05 0)
(-1.12845e-05 3.79881e-05 0)
(-1.10651e-05 3.79676e-05 -7.51059e-20)
(-1.00519e-05 3.88237e-05 7.49038e-20)
(-8.34537e-06 4.02505e-05 -1.51054e-19)
(-6.01859e-06 4.19562e-05 1.50538e-19)
(-2.71461e-06 4.34504e-05 -1.51984e-19)
(1.72148e-06 4.39554e-05 1.51353e-19)
(6.78739e-06 4.42848e-05 0)
(1.2134e-05 4.43269e-05 -1.5321e-19)
(1.74935e-05 4.4072e-05 1.52417e-19)
(2.24523e-05 4.36796e-05 0)
(2.63926e-05 4.39111e-05 0)
(2.79666e-05 4.56159e-05 -3.06482e-19)
(2.65513e-05 4.88977e-05 -1.0192e-21)
(2.19461e-05 5.27506e-05 3.034e-19)
(1.57126e-05 5.40092e-05 0)
(1.45624e-05 4.70664e-05 -2.97515e-19)
(1.94848e-05 3.19658e-05 2.95236e-19)
(3.8922e-05 7.13769e-06 0)
(9.46148e-06 2.0101e-05 -2.44236e-19)
(-6.18965e-07 4.82656e-05 0)
(-3.23598e-06 4.99944e-05 0)
(-5.37279e-06 4.72204e-05 0)
(-6.86684e-06 4.30955e-05 0)
(-7.33273e-06 3.96601e-05 0)
(-6.70813e-06 3.78883e-05 0)
(-5.07452e-06 3.75323e-05 0)
(-2.57731e-06 3.8275e-05 0)
(5.58298e-07 3.99398e-05 0)
(4.01697e-06 4.24784e-05 0)
(7.48989e-06 4.58122e-05 0)
(1.20963e-05 4.85718e-05 0)
(1.78716e-05 5.00702e-05 0)
(2.3674e-05 5.10145e-05 0)
(2.95012e-05 5.16458e-05 0)
(3.5447e-05 5.16379e-05 0)
(4.1422e-05 5.10805e-05 0)
(4.61041e-05 5.05628e-05 0)
(4.74326e-05 5.14227e-05 0)
(4.39158e-05 5.40067e-05 0)
(3.65017e-05 5.73981e-05 0)
(2.99148e-05 5.61523e-05 0)
(2.62431e-05 4.72817e-05 0)
(4.63175e-05 1.29622e-05 0)
(1.43615e-05 1.93187e-05 0)
(-3.78681e-07 4.8509e-05 1.59494e-20)
(-2.19788e-06 5.06193e-05 1.75057e-20)
(-3.54769e-06 4.75079e-05 -3.49547e-20)
(-4.07073e-06 4.27097e-05 7.00956e-20)
(-3.11963e-06 3.84019e-05 -6.9995e-20)
(-7.71909e-07 3.59142e-05 0)
(2.68238e-06 3.49185e-05 7.04333e-20)
(7.10653e-06 3.51392e-05 7.08935e-20)
(1.22737e-05 3.65074e-05 -2.82232e-19)
(1.79179e-05 3.89441e-05 1.4103e-19)
(2.33152e-05 4.27101e-05 1.42199e-19)
(2.81288e-05 4.79714e-05 -1.4166e-19)
(3.33895e-05 5.31174e-05 -1.43119e-19)
(3.97714e-05 5.72809e-05 2.86114e-19)
(4.64989e-05 6.07137e-05 1.19567e-21)
(5.32375e-05 6.4159e-05 1.45877e-19)
(5.99245e-05 6.62063e-05 -2.87763e-19)
(6.56571e-05 6.61837e-05 -2.90957e-19)
(6.93263e-05 6.45099e-05 5.80594e-19)
(6.94544e-05 6.21046e-05 -2.89557e-19)
(6.3844e-05 6.05194e-05 0)
(5.44415e-05 5.81897e-05 2.88753e-19)
(3.97091e-05 5.45119e-05 -5.71865e-19)
(5.95648e-05 8.94203e-06 2.83136e-19)
(2.21946e-05 1.17011e-05 2.42729e-19)
(-1.16701e-07 4.7717e-05 0)
(-9.68089e-07 4.99529e-05 0)
(-1.20437e-06 4.6163e-05 0)
(-5.75037e-07 4.04858e-05 0)
(1.91106e-06 3.52952e-05 0)
(6.22418e-06 3.18786e-05 0)
(1.16912e-05 2.98755e-05 0)
(1.83131e-05 2.89802e-05 0)
(2.56955e-05 2.92441e-05 0)
(3.34793e-05 3.08362e-05 0)
(4.14286e-05 3.39674e-05 0)
(4.91872e-05 3.91917e-05 0)
(5.62205e-05 4.68778e-05 0)
(6.29009e-05 5.6167e-05 0)
(7.06729e-05 6.56048e-05 0)
(7.83393e-05 7.44496e-05 0)
(8.429e-05 8.28358e-05 0)
(8.89517e-05 9.04109e-05 0)
(9.19739e-05 9.60463e-05 -2.82221e-19)
(9.24151e-05 9.84977e-05 2.80491e-19)
(8.98503e-05 9.62209e-05 0)
(8.39157e-05 8.78599e-05 0)
(6.41211e-05 7.62805e-05 0)
(9.74943e-05 -3.3563e-06 0)
(4.52393e-05 -3.69977e-05 0)
(1.01965e-07 4.60949e-05 0)
(3.78489e-07 4.79696e-05 0)
(1.40295e-06 4.29021e-05 0)
(3.50466e-06 3.56833e-05 0)
(7.73655e-06 2.92884e-05 0)
(1.39327e-05 2.41918e-05 0)
(2.12536e-05 2.04169e-05 0)
(2.98566e-05 1.77348e-05 0)
(3.95905e-05 1.6175e-05 0)
(5.01778e-05 1.61349e-05 0)
(6.11993e-05 1.797e-05 -1.32091e-19)
(7.23114e-05 2.20412e-05 1.31635e-19)
(8.33083e-05 2.87172e-05 0)
(9.39042e-05 3.87273e-05 0)
(0.000103042 5.22352e-05 0)
(0.000110866 6.77612e-05 0)
(0.000118726 8.50285e-05 0)
(0.000125618 0.000103487 0)
(0.000129901 0.000120879 0)
(0.000130989 0.000133502 0)
(0.000127496 0.000136692 0)
(0.000116869 0.000126625 -2.78246e-19)
(8.50227e-05 0.000113718 2.76239e-19)
(0.000104235 4.79949e-05 0)
(0.00014074 -0.000236502 0)
(2.17896e-07 4.45613e-05 0)
(1.38708e-06 4.55156e-05 0)
(3.56878e-06 3.8673e-05 0)
(7.24014e-06 2.9229e-05 0)
(1.27892e-05 2.05865e-05 0)
(2.01416e-05 1.30986e-05 0)
(2.90064e-05 6.98273e-06 0)
(3.93483e-05 2.12058e-06 0)
(5.10485e-05 -1.50827e-06 0)
(6.38449e-05 -3.72102e-06 0)
(7.73625e-05 -4.18068e-06 0)
(9.12477e-05 -2.50768e-06 0)
(0.000105318 1.66413e-06 0)
(0.00011939 8.65923e-06 0)
(0.000132869 1.87635e-05 0)
(0.000145506 3.29859e-05 0)
(0.000157038 5.08772e-05 0)
(0.000165534 7.11735e-05 0)
(0.000169283 9.25909e-05 0)
(0.00016718 0.000111816 0)
(0.000156284 0.0001226 0)
(0.000128963 0.00011768 0)
(6.54238e-05 9.90947e-05 0)
(-0.000104015 0.000112048 0)
(-0.000667653 -9.85494e-05 0)
(3.03232e-07 4.34385e-05 0)
(2.00735e-06 4.33179e-05 0)
(5.00093e-06 3.49222e-05 0)
(9.71534e-06 2.35245e-05 0)
(1.63321e-05 1.26031e-05 0)
(2.47962e-05 3.13425e-06 0)
(3.49413e-05 -4.79513e-06 0)
(4.66325e-05 -1.129e-05 0)
(5.97705e-05 -1.63552e-05 0)
(7.42859e-05 -1.99191e-05 0)
(8.98876e-05 -2.17374e-05 0)
(0.000106244 -2.15191e-05 0)
(0.000123078 -1.89057e-05 0)
(0.000140016 -1.36419e-05 0)
(0.000156836 -5.38623e-06 0)
(0.000173359 6.32968e-06 0)
(0.000189151 2.15453e-05 0)
(0.000203142 4.0351e-05 0)
(0.000213968 6.33424e-05 0)
(0.000219091 8.9623e-05 0)
(0.000212463 0.000116362 0)
(0.000182917 0.000139862 0)
(0.000114754 0.000164568 0)
(-6.04893e-06 0.000228327 0)
(-9.60769e-05 0.000436046 0)
(4.10205e-07 4.20872e-05 0)
(2.53675e-06 4.0673e-05 0)
(6.24602e-06 3.05947e-05 0)
(1.18716e-05 1.72609e-05 0)
(1.95237e-05 4.2991e-06 0)
(2.9141e-05 -7.05289e-06 0)
(4.05941e-05 -1.67052e-05 0)
(5.37578e-05 -2.47294e-05 0)
(6.8489e-05 -3.1087e-05 0)
(8.46588e-05 -3.5692e-05 0)
(0.000102079 -3.84379e-05 0)
(0.00012052 -3.90541e-05 0)
(0.000139778 -3.72758e-05 0)
(0.000159694 -3.27239e-05 0)
(0.000179993 -2.49169e-05 0)
(0.000200329 -1.34948e-05 0)
(0.000220452 1.97915e-06 0)
(0.000239776 2.1896e-05 0)
(0.000257198 4.69686e-05 0)
(0.000270671 7.75437e-05 0)
(0.00027593 0.000114343 0)
(0.000266327 0.000160572 0)
(0.000235423 0.000228105 0)
(0.000186753 0.000345774 0)
(0.00016108 0.000567507 0)
(4.95405e-07 4.04762e-05 0)
(2.98662e-06 3.75085e-05 0)
(7.31921e-06 2.55553e-05 0)
(1.37469e-05 1.01487e-05 0)
(2.2332e-05 -4.92371e-06 0)
(3.30012e-05 -1.82885e-05 0)
(4.56352e-05 -2.9832e-05 0)
(6.01108e-05 -3.96415e-05 0)
(7.62958e-05 -4.76974e-05 0)
(9.40613e-05 -5.38623e-05 0)
(0.00011326 -5.79573e-05 0)
(0.000133723 -5.97242e-05 0)
(0.000155302 -5.88724e-05 0)
(0.000177858 -5.50599e-05 0)
(0.000201183 -4.79402e-05 0)
(0.000225094 -3.7003e-05 0)
(0.000249304 -2.16173e-05 0)
(0.000273329 -1.13579e-06 0)
(0.000296492 2.54807e-05 0)
(0.000317483 5.95972e-05 0)
(0.000334112 0.000103565 0)
(0.000344209 0.000162392 0)
(0.000345844 0.000246491 0)
(0.00034326 0.00037345 0)
(0.000352809 0.000565346 0)
(5.65892e-07 3.86295e-05 0)
(3.37936e-06 3.38572e-05 0)
(8.265e-06 1.98529e-05 0)
(1.53999e-05 2.24872e-06 0)
(2.48122e-05 -1.50196e-05 0)
(3.64147e-05 -3.04773e-05 0)
(5.00981e-05 -4.39973e-05 0)
(6.57454e-05 -5.56688e-05 0)
(8.32361e-05 -6.54691e-05 0)
(0.000102457 -7.32581e-05 0)
(0.000123287 -7.88337e-05 0)
(0.000145598 -8.19362e-05 0)
(0.000169269 -8.22677e-05 0)
(0.000194177 -7.94903e-05 0)
(0.000220176 -7.32168e-05 0)
(0.000247113 -6.29112e-05 0)
(0.000274767 -4.79483e-05 0)
(0.000302836 -2.73966e-05 0)
(0.000330906 4.51822e-08 0)
(0.000358303 3.63251e-05 0)
(0.000384198 8.44652e-05 0)
(0.000408238 0.000149359 0)
(0.000430572 0.000238185 0)
(0.000454466 0.000362407 0)
(0.000487494 0.000532402 0)
(6.24748e-07 3.65809e-05 0)
(3.72071e-06 2.97734e-05 0)
(9.08941e-06 1.3553e-05 0)
(1.68403e-05 -6.37328e-06 0)
(2.69672e-05 -2.59367e-05 0)
(3.93829e-05 -4.35931e-05 0)
(5.39858e-05 -5.91989e-05 0)
(7.06607e-05 -7.28386e-05 0)
(8.92978e-05 -8.44938e-05 0)
(0.000109793 -9.40306e-05 0)
(0.000132048 -0.000101244 0)
(0.000155962 -0.000105877 0)
(0.000181432 -0.00010763 0)
(0.000208356 -0.000106157 0)
(0.00023662 -0.000101041 0)
(0.000266104 -9.17398e-05 0)
(0.000296644 -7.75534e-05 0)
(0.000328052 -5.74725e-05 0)
(0.000360153 -3.00907e-05 0)
(0.000392719 6.68479e-06 0)
(0.000425593 5.59268e-05 0)
(0.000459094 0.000121909 0)
(0.000494785 0.000210091 0)
(0.00053515 0.000327344 0)
(0.000584931 0.000480105 0)
(6.74194e-07 3.4361e-05 0)
(4.01475e-06 2.53171e-05 0)
(9.80053e-06 6.74042e-06 0)
(1.80749e-05 -1.56108e-05 0)
(2.88081e-05 -3.75581e-05 0)
(4.19182e-05 -5.75103e-05 0)
(5.73044e-05 -7.52994e-05 0)
(7.4857e-05 -9.10117e-05 0)
(9.44717e-05 -0.000104637 0)
(0.000116057 -0.00011605 0)
(0.000139525 -0.000125044 0)
(0.000164793 -0.000131367 0)
(0.000191778 -0.000134719 0)
(0.000220395 -0.000134748 0)
(0.000250557 -0.000131023 0)
(0.000282169 -0.000122992 0)
(0.000315135 -0.000109929 0)
(0.000349365 -9.08195e-05 0)
(0.000384822 -6.42479e-05 0)
(0.000421608 -2.82334e-05 0)
(0.000460015 2.00265e-05 0)
(0.000500842 8.41913e-05 0)
(0.000545773 0.000168565 0)
(0.000597378 0.000276962 0)
(0.000660024 0.000413639 0)
(7.15816e-07 3.19956e-05 0)
(4.2667e-06 2.05425e-05 0)
(1.04045e-05 -5.05814e-07 0)
(1.91162e-05 -2.53621e-05 0)
(3.0354e-05 -4.97734e-05 0)
(4.40413e-05 -7.21006e-05 0)
(6.00791e-05 -9.21559e-05 0)
(7.8361e-05 -0.00011003 0)
(9.87916e-05 -0.000125724 0)
(0.000121285 -0.000139118 0)
(0.000145765 -0.000150014 0)
(0.000172162 -0.00015816 0)
(0.000200406 -0.000163258 0)
(0.000230435 -0.000164955 0)
(0.000262186 -0.000162818 0)
(0.000295602 -0.000156296 0)
(0.000330646 -0.000144666 0)
(0.00036732 -0.000126963 0)
(0.000405714 -0.000101868 0)
(0.000446098 -6.76105e-05 0)
(0.000489076 -2.1811e-05 0)
(0.000535763 3.85493e-05 0)
(0.000587967 0.000116676 0)
(0.000648295 0.000215291 0)
(0.000720835 0.00033612 0)
(7.50832e-07 2.95072e-05 0)
(4.47989e-06 1.55002e-05 0)
(1.09118e-05 -8.11213e-06 0)
(1.99795e-05 -3.55363e-05 0)
(3.16295e-05 -6.24753e-05 0)
(4.57842e-05 -8.72415e-05 0)
(6.23487e-05 -0.000109631 0)
(8.12239e-05 -0.000129741 0)
(0.000102318 -0.000147583 0)
(0.000125553 -0.000163048 0)
(0.000150861 -0.000175944 0)
(0.000178184 -0.000186024 0)
(0.00020747 -0.000192997 0)
(0.000238675 -0.000196513 0)
(0.000271768 -0.000196148 0)
(0.000306734 -0.000191367 0)
(0.000343594 -0.000181481 0)
(0.000382431 -0.000165603 0)
(0.000423433 -0.000142567 0)
(0.000467006 -0.000110871 0)
(0.000513927 -6.85879e-05 0)
(0.000565458 -1.33836e-05 0)
(0.000623538 5.71916e-05 0)
(0.000690783 0.000144981 0)
(0.000770781 0.00025034 0)
(7.80286e-07 2.69149e-05 0)
(4.65998e-06 1.02353e-05 0)
(1.13306e-05 -1.60122e-05 0)
(2.06849e-05 -4.60535e-05 0)
(3.2661e-05 -7.55665e-05 0)
(4.71829e-05 -0.000102821 0)
(6.41626e-05 -0.000127601 0)
(8.35048e-05 -0.000150008 0)
(0.000105125 -0.000170065 0)
(0.00012895 -0.000187673 0)
(0.000154923 -0.000202652 0)
(0.000182996 -0.000214766 0)
(0.000213135 -0.00022373 0)
(0.000245319 -0.00022921 0)
(0.000279548 -0.000230798 0)
(0.00031585 -0.000227992 0)
(0.000354303 -0.00022016 0)
(0.000395063 -0.000206512 0)
(0.000438408 -0.000186051 0)
(0.000484837 -0.000157545 0)
(0.000535182 -0.00011952 0)
(0.000590756 -7.03066e-05 0)
(0.000653476 -8.14145e-06 0)
(0.000725935 6.82235e-05 0)
(0.000811229 0.000158662 0)
(8.05112e-07 2.42358e-05 0)
(4.81003e-06 4.78848e-06 0)
(1.16725e-05 -2.41449e-05 0)
(2.12494e-05 -5.68399e-05 0)
(3.34762e-05 -8.89591e-05 0)
(4.82769e-05 -0.00011874 0)
(6.55699e-05 -0.000145953 0)
(8.52675e-05 -0.000170706 0)
(0.000107289 -0.000193032 0)
(0.00013157 -0.000212847 0)
(0.000158062 -0.000229984 0)
(0.000186731 -0.000244219 0)
(0.000217559 -0.000255285 0)
(0.00025055 -0.000262866 0)
(0.000285735 -0.000266584 0)
(0.000323181 -0.00026598 0)
(0.00036302 -0.000260494 0)
(0.000405469 -0.000249443 0)
(0.000450878 -0.000232005 0)
(0.0004998 -0.000207213 0)
(0.000553083 -0.000173982 0)
(0.000611977 -0.000131172 0)
(0.000678271 -7.7724e-05 0)
(0.000754317 -1.28783e-05 0)
(0.000842901 6.30951e-05 0)
(8.25448e-07 2.14848e-05 0)
(4.93395e-06 -8.04564e-07 0)
(1.19452e-05 -3.24585e-05 0)
(2.16921e-05 -6.78305e-05 0)
(3.41015e-05 -0.000102576 0)
(4.91022e-05 -0.000134908 0)
(6.66198e-05 -0.000164587 0)
(8.6571e-05 -0.000191723 0)
(0.000108884 -0.000216363 0)
(0.000133501 -0.000238439 0)
(0.000160384 -0.000257798 0)
(0.000189511 -0.000274236 0)
(0.000220882 -0.000287505 0)
(0.000254523 -0.000297317 0)
(0.000290493 -0.000303331 0)
(0.000328897 -0.000305141 0)
(0.000369908 -0.000302266 0)
(0.000413792 -0.000294138 0)
(0.000460947 -0.000280103 0)
(0.000511953 -0.00025943 0)
(0.000567644 -0.000231357 0)
(0.000629176 -0.000195159 0)
(0.000698108 -0.000150277 0)
(0.000776458 -9.65144e-05 0)
(0.000866607 -3.42914e-05 0)
(8.41331e-07 1.86758e-05 0)
(5.03257e-06 -6.51294e-06 0)
(1.21588e-05 -4.09104e-05 0)
(2.20271e-05 -7.89688e-05 0)
(3.45611e-05 -0.00011635 0)
(4.96929e-05 -0.000151248 0)
(6.73545e-05 -0.000183413 0)
(8.74715e-05 -0.000212961 0)
(0.000109977 -0.000239952 0)
(0.000134823 -0.000264333 0)
(0.00016198 -0.000285972 0)
(0.000191439 -0.000304684 0)
(0.000223216 -0.000320248 0)
(0.000257356 -0.000332407 0)
(0.000293944 -0.000340864 0)
(0.000333113 -0.000345273 0)
(0.000375069 -0.000345235 0)
(0.000420109 -0.000340295 0)
(0.000468654 -0.000329954 0)
(0.000521293 -0.000313688 0)
(0.000578819 -0.000290993 0)
(0.000642279 -0.000261459 0)
(0.000713016 -0.000224876 0)
(0.000792677 -0.000181392 0)
(0.000883169 -0.000131712 0)
(8.52743e-07 1.58212e-05 0)
(5.10908e-06 -1.23093e-05 0)
(1.2318e-05 -4.94627e-05 0)
(2.22684e-05 -9.02053e-05 0)
(3.4875e-05 -0.00013022 0)
(5.00765e-05 -0.00016769 0)
(6.78127e-05 -0.000202354 0)
(8.80148e-05 -0.000234333 0)
(0.000110625 -0.000263701 0)
(0.000135602 -0.000290424 0)
(0.000162926 -0.000314389 0)
(0.000192598 -0.000335437 0)
(0.000224649 -0.000353374 0)
(0.000259141 -0.000367979 0)
(0.000296175 -0.000379003 0)
(0.000335908 -0.000386161 0)
(0.000378565 -0.000389135 0)
(0.000424458 -0.00038758 0)
(0.000474016 -0.000381133 0)
(0.000527807 -0.000369443 0)
(0.000586572 -0.000352216 0)
(0.000651245 -0.000329272 0)
(0.000722969 -0.000300645 0)
(0.000803084 -0.000266689 0)
(0.000893075 -0.000228219 0)
(8.60051e-07 1.29325e-05 0)
(5.16395e-06 -1.81692e-05 0)
(1.24296e-05 -5.80818e-05 0)
(2.24242e-05 -0.000101497 0)
(3.50594e-05 -0.000144136 0)
(5.0277e-05 -0.000184172 0)
(6.80239e-05 -0.000221338 0)
(8.82407e-05 -0.000255759 0)
(0.000110874 -0.000287523 0)
(0.000135893 -0.000316614 0)
(0.000163282 -0.000342942 0)
(0.000193054 -0.000366373 0)
(0.00022525 -0.000386744 0)
(0.000259942 -0.000403873 0)
(0.000297248 -0.000417558 0)
(0.000337335 -0.000427575 0)
(0.000380436 -0.000433684 0)
(0.000426869 -0.000435638 0)
(0.000477047 -0.000433193 0)
(0.000531507 -0.000426144 0)
(0.00059092 -0.000414355 0)
(0.000656108 -0.000397821 0)
(0.000728034 -0.000376736 0)
(0.000807787 -0.000351576 0)
(0.000896522 -0.000323189 0)
(8.63268e-07 1.00206e-05 0)
(5.19976e-06 -2.40704e-05 0)
(1.24959e-05 -6.67375e-05 0)
(2.25036e-05 -0.000112807 0)
(3.51263e-05 -0.00015805 0)
(5.03115e-05 -0.00020064 0)
(6.80136e-05 -0.000240303 0)
(8.81783e-05 -0.000277167 0)
(0.000110762 -0.000311335 0)
(0.000135735 -0.00034281 0)
(0.000163093 -0.000371525 0)
(0.000192854 -0.000397372 0)
(0.000225066 -0.00042022 0)
(0.000259809 -0.000439926 0)
(0.000297208 -0.000456333 0)
(0.000337433 -0.000469278 0)
(0.000380718 -0.000478591 0)
(0.000427369 -0.000484109 0)
(0.000477778 -0.000485694 0)
(0.000532434 -0.000483252 0)
(0.000591934 -0.000476775 0)
(0.000656985 -0.000466378 0)
(0.000728392 -0.000452362 0)
(0.00080703 -0.000435267 0)
(0.000893797 -0.000415932 0)
(8.62605e-07 7.09598e-06 0)
(5.21616e-06 -2.99929e-05 0)
(1.25217e-05 -7.5402e-05 0)
(2.25112e-05 -0.0001241 0)
(3.50856e-05 -0.000171921 0)
(5.01947e-05 -0.000217044 0)
(6.77988e-05 -0.00025919 0)
(8.78519e-05 -0.000298491 0)
(0.000110313 -0.000335061 0)
(0.000135162 -0.000368925 0)
(0.000162394 -0.000400037 0)
(0.000192035 -0.000428315 0)
(0.000224135 -0.000453662 0)
(0.000258779 -0.000475971 0)
(0.000296089 -0.00049513 0)
(0.000336237 -0.000511029 0)
(0.000379445 -0.000523561 0)
(0.000426 -0.000532639 0)
(0.000476262 -0.000538206 0)
(0.000530666 -0.000540261 0)
(0.000589733 -0.000538887 0)
(0.000654059 -0.000534287 0)
(0.000724304 -0.000526824 0)
(0.000801166 -0.000517065 0)
(0.000885333 -0.000505815 0)
(8.58006e-07 4.16872e-06 0)
(5.21526e-06 -3.59186e-05 0)
(1.25075e-05 -8.40503e-05 0)
(2.24527e-05 -0.000135345 0)
(3.4944e-05 -0.00018571 0)
(4.99358e-05 -0.000233338 0)
(6.73944e-05 -0.000277945 0)
(8.72775e-05 -0.000319665 0)
(0.000109551 -0.000358627 0)
(0.000134195 -0.000394872 0)
(0.000161211 -0.000428376 0)
(0.000190625 -0.000459085 0)
(0.000222487 -0.000486932 0)
(0.000256881 -0.000511843 0)
(0.000293926 -0.000533751 0)
(0.000333784 -0.00055259 0)
(0.000376661 -0.00056831 0)