/*--------------------------------*- C++ -*----------------------------------*\
  =========                 |
  \\      /  F ield         | OpenFOAM: The Open Source CFD Toolbox
   \\    /   O peration     | Website:  https://openfoam.org
    \\  /    A nd           | Version:  13
     \\/     M anipulation  |
\*---------------------------------------------------------------------------*/
FoamFile
{
    format      ascii;
    class       volScalarField;
    location    "15";
    object      p;
}
// * * * * * * * * * * * * * * * * * * * * * * * * * * * * * * * * * * * * * //

dimensions      [0 2 -2 0 0 0 0];

internalField   nonuniform List<scalar> 
6440
(
151.056
151.056
151.054
151.051
151.047
151.044
151.042
151.041
151.04
151.038
151.035
151.031
151.025
151.018
151.011
151.002
150.989
150.973
150.952
150.928
150.906
150.891
150.884
150.884
150.885
151.059
151.057
151.054
151.052
151.05
151.048
151.046
151.043
151.038
151.032
151.026
151.02
151.015
151.011
151.004
150.994
150.978
150.956
150.931
150.904
150.88
150.866
150.862
150.867
150.871
151.075
151.07
151.065
151.061
151.059
151.055
151.049
151.041
151.03
151.017
151.007
151.001
150.997
150.995
150.989
150.978
150.96
150.936
150.907
150.878
150.855
150.843
150.843
150.85
150.854
151.097
151.09
151.081
151.072
151.062
151.05
151.036
151.021
151.005
150.992
150.984
150.979
150.976
150.972
150.965
150.953
150.935
150.912
150.885
150.857
150.837
150.83
150.833
150.841
150.845
151.111
151.101
151.085
151.066
151.047
151.027
151.008
150.99
150.975
150.962
150.953
150.946
150.94
150.933
150.925
150.915
150.901
150.884
150.863
150.843
150.829
150.827
150.833
150.84
150.842
151.108
151.093
151.07
151.044
151.019
150.996
150.976
150.957
150.939
150.922
150.907
150.894
150.885
150.877
150.871
150.865
150.857
150.848
150.837
150.825
150.819
150.825
150.836
150.841
150.84
151.084
151.065
151.04
151.011
150.985
150.962
150.938
150.914
150.889
150.865
150.844
150.829
150.819
150.814
150.81
150.809
150.807
150.804
150.797
150.791
150.794
150.812
150.834
150.84
150.836
151.039
151.02
150.995
150.968
150.942
150.915
150.885
150.854
150.823
150.794
150.772
150.758
150.751
150.749
150.75
150.753
150.754
150.752
150.749
150.749
150.76
150.788
150.823
150.834
150.827
150.972
150.956
150.935
150.908
150.879
150.848
150.814
150.779
150.746
150.718
150.698
150.688
150.686
150.689
150.694
150.699
150.701
150.7
150.703
150.714
150.737
150.772
150.812
150.825
150.816
150.887
150.873
150.854
150.826
150.794
150.761
150.73
150.7
150.672
150.646
150.628
150.623
150.626
150.633
150.639
150.643
150.647
150.654
150.669
150.697
150.733
150.771
150.806
150.815
150.803
150.784
150.773
150.751
150.721
150.691
150.666
150.646
150.625
150.601
150.576
150.563
150.562
150.568
150.573
150.577
150.582
150.593
150.614
150.646
150.687
150.73
150.766
150.792
150.794
150.783
150.668
150.657
150.634
150.605
150.584
150.573
150.566
150.554
150.532
150.509
150.498
150.498
150.5
150.5
150.502
150.513
150.536
150.571
150.614
150.662
150.704
150.735
150.755
150.756
150.754
150.542
150.532
150.509
150.488
150.482
150.488
150.494
150.486
150.463
150.44
150.428
150.42
150.411
150.407
150.413
150.433
150.467
150.511
150.56
150.607
150.647
150.677
150.697
150.703
150.717
150.41
150.401
150.385
150.378
150.388
150.408
150.419
150.406
150.382
150.358
150.334
150.312
150.297
150.292
150.304
150.332
150.375
150.426
150.479
150.529
150.573
150.61
150.634
150.643
150.677
150.281
150.276
150.269
150.275
150.296
150.32
150.323
150.303
150.275
150.243
150.207
150.174
150.153
150.15
150.166
150.202
150.252
150.312
150.376
150.438
150.494
150.544
150.575
150.586
150.641
150.162
150.161
150.16
150.173
150.195
150.208
150.195
150.166
150.131
150.087
150.037
149.995
149.97
149.968
149.989
150.033
150.096
150.172
150.254
150.336
150.411
150.48
150.519
150.537
150.625
150.053
150.053
150.054
150.065
150.076
150.064
150.028
149.987
149.942
149.885
149.817
149.764
149.735
149.734
149.764
149.823
149.908
150.008
150.12
150.228
150.33
150.423
150.48
150.524
150.661
149.946
149.945
149.941
149.939
149.926
149.881
149.821
149.766
149.708
149.627
149.538
149.471
149.439
149.444
149.489
149.577
149.694
149.837
149.985
150.136
150.273
150.406
150.504
150.616
150.813
149.832
149.829
149.814
149.789
149.737
149.659
149.572
149.502
149.42
149.307
149.191
149.109
149.076
149.094
149.17
149.298
149.471
149.667
149.876
150.078
150.275
150.462
150.64
150.846
151.117
149.71
149.702
149.67
149.611
149.507
149.384
149.271
149.177
149.067
148.92
148.775
148.681
148.644
148.68
148.794
148.981
149.219
149.489
149.764
150.032
150.288
150.542
150.797
151.106
151.408
149.588
149.568
149.513
149.415
149.266
149.101
148.953
148.825
148.683
148.5
148.317
148.186
148.138
148.183
148.332
148.576
148.888
149.232
149.577
149.902
150.203
150.488
150.773
151.068
151.339
149.481
149.447
149.362
149.22
149.023
148.805
148.608
148.436
148.256
148.034
147.787
147.598
147.504
147.536
147.711
148.023
148.427
148.868
149.296
149.686
150.032
150.345
150.64
150.919
151.173
149.393
149.344
149.228
149.04
148.794
148.529
148.282
148.054
147.824
147.556
147.251
146.98
146.82
146.815
147.002
147.384
147.892
148.438
148.954
149.408
149.796
150.135
150.437
150.705
150.916
149.335
149.27
149.124
148.893
148.606
148.3
148.004
147.717
147.425
147.104
146.731
146.372
146.123
146.05
146.222
146.663
147.284
147.947
148.556
149.075
149.51
149.878
150.192
150.448
150.646
149.315
149.236
149.066
148.808
148.48
148.135
147.796
147.454
147.099
146.718
146.29
145.85
145.507
145.335
145.446
145.92
146.646
147.425
148.125
148.709
149.191
149.59
149.915
150.173
150.357
149.346
149.254
149.064
148.783
148.427
148.046
147.672
147.291
146.885
146.453
145.983
145.479
145.062
144.81
144.816
145.257
146.049
146.92
147.694
148.336
148.863
149.289
149.627
149.882
150.064
149.433
149.329
149.12
148.824
148.449
148.047
147.648
147.246
146.813
146.34
145.831
145.291
144.821
144.551
144.485
144.812
145.584
146.487
147.302
147.985
148.545
148.992
149.336
149.593
149.769
149.581
149.466
149.242
148.934
148.555
148.139
147.727
147.322
146.892
146.414
145.903
145.342
144.829
144.521
144.43
144.654
145.309
146.164
146.979
147.681
148.258
148.712
149.058
149.308
149.481
149.775
149.652
149.418
149.108
148.727
148.308
147.893
147.492
147.088
146.649
146.168
145.661
145.159
144.789
144.641
144.743
145.223
145.976
146.755
147.444
148.015
148.463
148.798
149.04
149.201
149.99
149.868
149.628
149.316
148.946
148.534
148.12
147.725
147.347
146.959
146.56
146.132
145.698
145.303
145.061
145.028
145.33
145.945
146.645
147.288
147.83
148.253
148.568
148.79
148.936
150.18
150.081
149.843
149.541
149.183
148.788
148.383
147.994
147.633
147.294
146.959
146.635
146.275
145.879
145.572
145.453
145.613
146.071
146.656
147.22
147.708
148.09
148.371
148.566
148.69
150.303
150.249
150.038
149.75
149.417
149.046
148.661
148.284
147.934
147.62
147.34
147.069
146.766
146.403
146.093
145.943
146.009
146.321
146.773
147.238
147.651
147.974
148.21
148.37
148.465
150.352
150.345
150.192
149.934
149.627
149.29
148.937
148.583
148.247
147.945
147.674
147.433
147.163
146.858
146.592
146.454
146.467
146.652
146.97
147.328
147.65
147.903
148.085
148.203
148.265
150.359
150.378
150.301
150.086
149.809
149.508
149.195
148.877
148.563
148.266
147.996
147.755
147.522
147.285
147.093
146.987
146.957
147.029
147.221
147.469
147.694
147.871
147.994
148.066
148.09
150.362
150.384
150.361
150.203
149.959
149.692
149.422
149.15
148.874
148.598
148.337
148.116
147.927
147.759
147.631
147.536
147.452
147.423
147.495
147.638
147.77
147.871
147.933
147.955
147.941
150.362
150.375
150.373
150.27
150.07
149.842
149.621
149.405
149.183
148.955
148.743
148.563
148.421
148.3
148.192
148.068
147.921
147.807
147.781
147.824
147.869
147.897
147.898
147.872
147.816
150.355
150.357
150.35
150.28
150.131
149.956
149.795
149.648
149.502
149.355
149.213
149.088
148.975
148.856
148.714
148.538
148.339
148.164
148.062
148.015
147.981
147.94
147.884
147.81
147.715
150.337
150.325
150.294
150.235
150.129
150.021
149.942
149.887
149.838
149.781
149.707
149.614
149.492
149.337
149.148
148.935
148.703
148.482
148.315
148.195
148.092
147.991
147.884
147.767
147.633
150.312
150.283
150.225
150.148
150.073
150.034
150.057
150.113
150.165
150.185
150.153
150.057
149.908
149.717
149.502
149.271
149.014
148.751
148.529
148.353
148.196
148.045
147.894
147.737
147.571
150.298
150.255
150.175
150.07
149.997
150.013
150.14
150.307
150.448
150.521
150.505
150.405
150.235
150.029
149.803
149.549
149.264
148.968
148.703
148.486
148.286
148.095
147.907
147.719
147.523
150.321
150.269
150.172
150.039
149.961
150.005
150.206
150.46
150.664
150.776
150.781
150.678
150.5
150.282
150.034
149.747
149.441
149.13
148.842
148.592
148.36
148.138
147.923
147.707
147.487
150.381
150.323
150.208
150.051
149.961
150.044
150.287
150.576
150.809
150.943
150.955
150.851
150.663
150.432
150.162
149.868
149.554
149.231
148.936
148.668
148.415
148.172
147.935
147.7
147.46
150.448
150.381
150.247
150.064
149.974
150.075
150.339
150.626
150.844
150.969
150.983
150.883
150.707
150.478
150.213
149.919
149.599
149.285
148.993
148.716
148.452
148.196
147.944
147.694
147.44
150.476
150.397
150.23
150.019
149.9
149.979
150.221
150.511
150.743
150.874
150.893
150.817
150.662
150.448
150.19
149.899
149.596
149.3
149.014
148.738
148.47
148.207
147.948
147.689
147.426
150.444
150.346
150.14
149.886
149.725
149.753
149.957
150.256
150.529
150.686
150.732
150.682
150.549
150.347
150.1
149.831
149.557
149.281
149.008
148.738
148.472
148.209
147.947
147.683
147.415
150.342
150.229
149.999
149.721
149.537
149.522
149.683
149.98
150.274
150.46
150.531
150.501
150.381
150.198
149.978
149.742
149.494
149.239
148.981
148.722
148.462
148.202
147.941
147.677
147.407
150.176
150.066
149.843
149.571
149.403
149.37
149.476
149.735
150.024
150.227
150.314
150.292
150.189
150.034
149.848
149.641
149.417
149.183
148.94
148.693
148.443
148.189
147.932
147.67
147.401
149.991
149.901
149.71
149.473
149.353
149.325
149.388
149.564
149.819
150.017
150.102
150.089
150.006
149.879
149.721
149.537
149.335
149.118
148.892
148.657
148.417
148.171
147.92
147.663
147.399
149.868
149.796
149.655
149.481
149.392
149.388
149.418
149.507
149.698
149.859
149.929
149.919
149.851
149.743
149.603
149.437
149.252
149.052
148.84
148.618
148.388
148.151
147.907
147.657
147.397
149.868
149.803
149.706
149.602
149.552
149.561
149.55
149.565
149.668
149.768
149.809
149.79
149.726
149.626
149.498
149.345
149.174
148.987
148.787
148.577
148.357
148.13
147.895
147.651
147.399
149.985
149.926
149.858
149.814
149.795
149.786
149.738
149.684
149.699
149.736
149.737
149.699
149.628
149.529
149.407
149.263
149.102
148.926
148.737
148.537
148.328
148.109
147.882
147.647
147.403
150.111
150.082
150.049
150.04
150.037
149.995
149.914
149.808
149.758
149.735
149.694
149.633
149.552
149.451
149.33
149.192
149.038
148.871
148.691
148.5
148.3
148.09
147.872
147.645
147.409
150.174
150.165
150.175
150.198
150.199
150.145
150.042
149.906
149.812
149.739
149.665
149.585
149.492
149.386
149.266
149.131
148.982
148.821
148.649
148.466
148.274
148.073
147.863
147.645
147.418
150.181
150.177
150.202
150.247
150.258
150.222
150.108
149.961
149.84
149.737
149.642
149.546
149.444
149.333
149.211
149.078
148.933
148.778
148.612
148.436
148.252
148.058
147.857
147.647
147.429
150.157
150.147
150.173
150.217
150.244
150.232
150.121
149.969
149.84
149.726
149.618
149.512
149.402
149.287
149.164
149.032
148.89
148.739
148.579
148.41
148.232
148.046
147.853
147.652
147.443
150.107
150.086
150.105
150.148
150.193
150.187
150.085
149.942
149.815
149.7
149.587
149.476
149.363
149.246
149.123
148.992
148.853
148.706
148.55
148.387
148.216
148.037
147.852
147.658
147.458
150.043
150.014
150.022
150.06
150.116
150.109
150.013
149.893
149.776
149.663
149.551
149.439
149.326
149.208
149.085
148.955
148.819
148.676
148.525
148.367
148.202
148.031
147.852
147.667
147.476
149.982
149.954
149.956
149.987
150.037
150.028
149.933
149.829
149.728
149.621
149.513
149.402
149.289
149.172
149.05
148.922
148.789
148.649
148.503
148.351
148.192
148.026
147.855
147.678
147.494
149.941
149.918
149.918
149.943
149.977
149.945
149.861
149.773
149.678
149.577
149.473
149.365
149.253
149.137
149.017
148.892
148.762
148.626
148.484
148.336
148.183
148.024
147.86
147.69
147.514
149.925
149.91
149.911
149.924
149.933
149.87
149.799
149.721
149.631
149.535
149.433
149.327
149.218
149.104
148.986
148.864
148.737
148.604
148.467
148.324
148.176
148.023
147.866
147.703
147.536
149.926
149.918
149.919
149.915
149.889
149.816
149.751
149.674
149.587
149.494
149.395
149.291
149.184
149.073
148.957
148.838
148.714
148.585
148.452
148.314
148.171
148.024
147.873
147.717
147.557
149.932
149.929
149.93
149.91
149.849
149.781
149.711
149.632
149.546
149.455
149.358
149.257
149.151
149.042
148.93
148.813
148.692
148.568
148.438
148.305
148.168
148.027
147.881
147.732
147.58
149.937
149.94
149.935
149.899
149.815
149.752
149.676
149.594
149.508
149.418
149.323
149.224
149.12
149.014
148.904
148.79
148.673
148.551
148.426
148.298
148.165
148.03
147.891
147.748
147.602
149.934
149.944
149.932
149.877
149.785
149.718
149.641
149.559
149.473
149.384
149.29
149.192
149.091
148.987
148.879
148.768
148.654
148.537
148.416
148.291
148.164
148.034
147.9
147.764
147.625
149.924
149.937
149.922
149.848
149.764
149.689
149.608
149.526
149.44
149.35
149.258
149.162
149.062
148.96
148.856
148.748
148.637
148.523
148.406
148.286
148.163
148.038
147.91
147.78
147.647
149.913
149.925
149.908
149.816
149.744
149.661
149.577
149.493
149.407
149.318
149.227
149.132
149.035
148.935
148.833
148.728
148.62
148.51
148.397
148.281
148.163
148.043
147.921
147.796
147.67
149.903
149.912
149.884
149.779
149.711
149.63
149.545
149.461
149.375
149.287
149.197
149.104
149.008
148.911
148.811
148.709
148.605
148.498
148.389
148.277
148.164
148.048
147.931
147.812
147.691
149.89
149.898
149.848
149.748
149.676
149.597
149.514
149.429
149.344
149.256
149.167
149.076
148.982
148.887
148.79
148.691
148.59
148.486
148.381
148.273
148.164
148.053
147.941
147.827
147.712
149.872
149.881
149.811
149.727
149.645
149.565
149.483
149.398
149.313
149.226
149.138
149.048
148.957
148.864
148.77
148.673
148.575
148.475
148.373
148.27
148.165
148.059
147.951
147.842
147.732
149.853
149.862
149.774
149.705
149.617
149.533
149.451
149.367
149.282
149.196
149.109
149.021
148.932
148.841
148.749
148.656
148.561
148.464
148.366
148.266
148.165
148.064
147.961
147.856
147.751
149.84
149.847
149.737
149.673
149.586
149.501
149.419
149.335
149.251
149.166
149.081
148.994
148.907
148.819
148.729
148.639
148.547
148.453
148.359
148.263
148.166
148.068
147.97
147.87
147.77
149.835
149.826
149.704
149.639
149.553
149.468
149.386
149.303
149.22
149.136
149.052
148.968
148.882
148.797
148.71
148.622
148.533
148.443
148.351
148.259
148.166
148.073
147.978
147.883
147.788
149.827
149.8
149.675
149.602
149.518
149.433
149.351
149.269
149.187
149.105
149.023
148.941
148.858
148.774
148.69
148.605
148.519
148.432
148.344
148.256
148.167
148.077
147.987
147.896
147.805
149.806
149.761
149.645
149.562
149.479
149.395
149.314
149.234
149.154
149.074
148.994
148.914
148.833
148.752
148.671
148.588
148.505
148.422
148.337
148.252
148.167
148.081
147.995
147.908
147.821
149.769
149.709
149.605
149.518
149.436
149.354
149.275
149.197
149.119
149.041
148.964
148.886
148.808
148.73
148.651
148.572
148.492
148.411
148.33
148.248
148.166
148.084
148.002
147.919
147.836
149.715
149.644
149.553
149.467
149.388
149.31
149.234
149.158
149.083
149.008
148.933
148.858
148.783
148.707
148.631
148.555
148.478
148.401
148.323
148.244
148.166
148.087
148.008
147.929
147.85
149.642
149.566
149.49
149.41
149.335
149.262
149.19
149.118
149.046
148.974
148.902
148.829
148.757
148.685
148.612
148.538
148.464
148.39
148.315
148.24
148.165
148.09
148.014
147.939
147.863
149.554
149.483
149.42
149.348
149.28
149.212
149.144
149.076
149.007
148.939
148.87
148.801
148.731
148.662
148.592
148.522
148.451
148.379
148.308
148.236
148.164
148.092
148.02
147.947
147.875
149.461
149.402
149.347
149.285
149.223
149.161
149.097
149.033
148.969
148.903
148.838
148.772
148.706
148.639
148.572
148.505
148.437
148.369
148.3
148.231
148.162
148.093
148.024
147.955
147.886
149.37
149.321
149.276
149.221
149.166
149.109
149.051
148.991
148.93
148.868
148.806
148.743
148.68
148.617
148.553
148.488
148.423
148.358
148.292
148.226
148.161
148.095
148.029
147.962
147.896
149.284
149.245
149.206
149.158
149.11
149.058
149.004
148.948
148.891
148.833
148.775
148.715
148.655
148.595
148.534
148.472
148.41
148.347
148.284
148.221
148.158
148.095
148.032
147.969
147.905
149.205
149.173
149.14
149.098
149.055
149.008
148.959
148.907
148.854
148.799
148.744
148.687
148.631
148.573
148.515
148.456
148.396
148.337
148.276
148.216
148.156
148.095
148.035
147.974
147.914
149.132
149.106
149.078
149.042
149.003
148.96
148.915
148.867
148.817
148.766
148.714
148.66
148.606
148.552
148.496
148.44
148.383
148.326
148.268
148.211
148.153
148.095
148.037
147.979
147.921
149.066
149.044
149.021
148.988
148.954
148.915
148.874
148.829
148.783
148.734
148.685
148.635
148.583
148.531
148.478
148.425
148.37
148.316
148.261
148.205
148.15
148.095
148.039
147.983
147.927
149.007
148.988
148.968
148.939
148.909
148.873
148.835
148.793
148.75
148.704
148.658
148.61
148.561
148.511
148.461
148.41
148.358
148.306
148.253
148.2
148.147
148.094
148.04
147.987
147.933
148.953
148.937
148.92
148.894
148.867
148.834
148.799
148.76
148.719
148.677
148.632
148.587
148.54
148.493
148.445
148.396
148.346
148.296
148.245
148.195
148.144
148.093
148.041
147.99
147.939
148.905
148.891
148.876
148.853
148.828
148.798
148.766
148.73
148.691
148.651
148.609
148.566
148.521
148.476
148.43
148.383
148.335
148.287
148.239
148.19
148.141
148.092
148.042
147.993
147.944
148.862
148.85
148.837
148.816
148.794
148.766
148.736
148.702
148.666
148.627
148.588
148.546
148.504
148.461
148.416
148.371
148.325
148.279
148.232
148.185
148.138
148.091
148.043
147.995
147.948
148.824
148.813
148.802
148.783
148.763
148.737
148.708
148.677
148.642
148.606
148.568
148.529
148.488
148.446
148.404
148.36
148.316
148.271
148.226
148.181
148.136
148.09
148.044
147.998
147.952
148.791
148.781
148.771
148.753
148.734
148.71
148.683
148.653
148.621
148.586
148.55
148.512
148.473
148.433
148.392
148.35
148.307
148.264
148.221
148.177
148.133
148.089
148.044
147.999
147.956
148.761
148.752
148.744
148.726
148.709
148.686
148.66
148.632
148.601
148.568
148.533
148.497
148.459
148.42
148.381
148.34
148.299
148.258
148.215
148.173
148.13
148.087
148.044
148.001
147.958
148.736
148.728
148.72
148.703
148.686
148.663
148.639
148.612
148.582
148.551
148.517
148.482
148.446
148.409
148.37
148.331
148.291
148.251
148.21
148.169
148.127
148.085
148.043
148.002
147.96
148.715
148.707
148.699
148.683
148.666
148.644
148.62
148.594
148.565
148.535
148.503
148.469
148.434
148.398
148.361
148.323
148.284
148.245
148.205
148.165
148.124
148.083
148.042
148.002
147.962
148.699
148.691
148.683
148.666
148.649
148.628
148.604
148.578
148.551
148.521
148.49
148.457
148.423
148.388
148.352
148.315
148.277
148.239
148.2
148.161
148.121
148.081
148.042
148.002
147.963
148.689
148.679
148.671
148.653
148.636
148.614
148.591
148.566
148.538
148.51
148.479
148.447
148.414
148.38
148.344
148.308
148.271
148.234
148.196
148.158
148.119
148.08
148.041
148.002
147.964
148.683
148.672
148.664
148.645
148.627
148.605
148.581
148.556
148.529
148.501
148.47
148.439
148.407
148.373
148.338
148.303
148.267
148.23
148.193
148.155
148.117
148.078
148.04
148.002
147.965
148.681
148.669
148.661
148.641
148.622
148.6
148.575
148.55
148.523
148.494
148.464
148.433
148.401
148.368
148.334
148.299
148.263
148.227
148.19
148.153
148.115
148.078
148.04
148.003
147.966
148.687
148.672
148.665
148.643
148.621
148.598
148.572
148.546
148.519
148.49
148.46
148.429
148.398
148.365
148.331
148.296
148.261
148.225
148.189
148.152
148.115
148.077
148.04
148.003
147.966
148.726
148.691
148.675
148.649
148.623
148.597
148.571
148.545
148.517
148.488
148.458
148.428
148.396
148.363
148.329
148.295
148.26
148.224
148.188
148.151
148.114
148.077
148.041
148.004
147.967
148.802
148.723
148.682
148.651
148.624
148.598
148.571
148.544
148.516
148.488
148.458
148.427
148.395
148.362
148.329
148.294
148.259
148.224
148.188
148.151
148.114
148.077
148.041
148.004
147.967
151.488
151.493
151.501
151.51
151.52
151.532
151.545
151.559
151.571
151.581
151.589
151.595
151.601
151.606
151.607
151.603
151.595
151.583
151.574
151.577
151.591
151.61
151.623
151.626
151.626
151.477
151.482
151.489
151.498
151.507
151.52
151.536
151.554
151.569
151.581
151.59
151.598
151.605
151.609
151.61
151.608
151.599
151.584
151.57
151.562
151.57
151.591
151.613
151.624
151.627
151.466
151.466
151.467
151.471
151.478
151.49
151.51
151.533
151.555
151.572
151.583
151.591
151.596
151.598
151.598
151.596
151.59
151.58
151.57
151.567
151.574
151.589
151.609
151.623
151.627
151.461
151.456
151.45
151.446
151.447
151.458
151.477
151.502
151.527
151.545
151.556
151.561
151.562
151.562
151.562
151.563
151.565
151.567
151.571
151.581
151.595
151.612
151.627
151.635
151.636
151.471
151.462
151.448
151.437
151.433
151.438
151.453
151.474
151.494
151.507
151.513
151.513
151.508
151.503
151.499
151.501
151.51
151.525
151.544
151.571
151.603
151.632
151.648
151.651
151.648
151.491
151.479
151.457
151.437
151.43
151.433
151.444
151.459
151.468
151.47
151.467
151.46
151.447
151.434
151.424
151.422
151.431
151.452
151.482
151.523
151.574
151.621
151.65
151.655
151.653
151.51
151.498
151.469
151.443
151.435
151.44
151.451
151.461
151.459
151.449
151.434
151.416
151.393
151.371
151.355
151.35
151.358
151.38
151.416
151.464
151.523
151.585
151.634
151.655
151.656
151.515
151.504
151.474
151.445
151.441
151.454
151.473
151.482
151.473
151.452
151.427
151.398
151.366
151.335
151.312
151.304
151.309
151.329
151.365
151.416
151.479
151.546
151.61
151.655
151.665
151.494
151.485
151.456
151.433
151.439
151.465
151.496
151.513
151.504
151.477
151.445
151.409
151.369
151.331
151.302
151.289
151.291
151.308
151.34
151.388
151.449
151.518
151.589
151.649
151.675
151.425
151.424
151.394
151.379
151.4
151.45
151.498
151.532
151.541
151.522
151.489
151.447
151.401
151.354
151.317
151.298
151.297
151.311
151.34
151.385
151.443
151.51
151.583
151.648
151.685
151.281
151.297
151.256
151.236
151.266
151.349
151.445
151.513
151.553
151.567
151.552
151.516
151.464
151.408
151.361
151.33
151.321
151.333
151.362
151.408
151.466
151.531
151.6
151.665
151.709
151.075
151.103
151.041
150.991
150.999
151.087
151.24
151.402
151.513
151.58
151.609
151.6
151.554
151.491
151.431
151.389
151.371
151.379
151.408
151.456
151.516
151.584
151.651
151.712
151.758
150.889
150.904
150.803
150.704
150.661
150.711
150.872
151.115
151.356
151.528
151.619
151.654
151.639
151.587
151.523
151.471
151.444
151.447
151.475
151.525
151.59
151.661
151.731
151.79
151.833
150.824
150.789
150.63
150.465
150.35
150.339
150.467
150.748
151.078
151.361
151.546
151.639
151.663
151.636
151.585
151.539
151.513
151.514
151.543
151.597
151.668
151.747
151.823
151.884
151.919
150.945
150.835
150.594
150.351
150.162
150.088
150.163
150.436
150.811
151.15
151.397
151.546
151.61
151.616
151.586
151.552
151.536
151.547
151.587
151.651
151.732
151.822
151.908
151.976
152.012
151.22
151.058
150.755
150.446
150.176
150.026
150.023
150.221
150.583
150.949
151.227
151.403
151.497
151.533
151.53
151.516
151.514
151.537
151.591
151.67
151.765
151.868
151.966
152.045
152.088
151.496
151.35
151.069
150.761
150.427
150.156
150.039
150.137
150.438
150.777
151.048
151.234
151.348
151.408
151.433
151.442
151.458
151.495
151.559
151.649
151.759
151.876
151.987
152.075
152.124
151.641
151.554
151.373
151.109
150.762
150.436
150.235
150.232
150.426
150.672
150.883
151.048
151.166
151.243
151.291
151.324
151.36
151.411
151.486
151.586
151.705
151.835
151.959
152.06
152.113
151.664
151.645
151.576
151.39
151.087
150.764
150.52
150.426
150.483
150.599
150.726
150.848
150.95
151.033
151.096
151.149
151.203
151.27
151.358
151.467
151.595
151.732
151.864
151.975
152.036
151.6
151.607
151.605
151.474
151.234
150.97
150.727
150.548
150.488
150.505
150.562
150.636
150.714
150.787
150.852
150.911
150.973
151.051
151.149
151.27
151.405
151.547
151.684
151.799
151.863
151.517
151.528
151.521
151.363
151.136
150.922
150.722
150.558
150.458
150.419
150.423
150.455
150.501
150.551
150.6
150.648
150.703
150.775
150.873
150.991
151.127
151.27
151.404
151.51
151.571
151.308
151.282
151.244
151.141
150.983
150.807
150.627
150.466
150.348
150.28
150.249
150.246
150.264
150.291
150.321
150.353
150.389
150.441
150.517
150.621
150.743
150.876
151.003
151.093
151.144
151.027
151.034
151.02
150.953
150.812
150.636
150.461
150.308
150.188
150.103
150.047
150.018
150.005
150.005
150.012
150.022
150.032
150.051
150.089
150.15
150.236
150.337
150.439
150.506
150.537
150.758
150.787
150.766
150.693
150.565
150.409
150.253
150.11
149.989
149.89
149.813
149.753
149.71
149.678
149.653
149.632
149.608
149.584
149.566
149.567
149.584
149.619
149.668
149.702
149.726
150.466
150.501
150.479
150.413
150.305
150.17
150.027
149.887
149.758
149.643
149.541
149.453
149.374
149.303
149.238
149.172
149.1
149.017
148.929
148.837
148.75
148.67
148.609
148.561
148.52
150.172
150.212
150.197
150.137
150.039
149.915
149.776
149.633
149.493
149.359
149.232
149.109
148.991
148.874
148.756
148.631
148.49
148.327
148.135
147.916
147.668
147.398
147.136
146.922
146.829
149.875
149.917
149.905
149.848
149.756
149.635
149.497
149.348
149.195
149.04
148.882
148.724
148.558
148.386
148.201
147.998
147.763
147.484
147.148
146.736
146.241
145.655
144.991
144.325
143.687
149.581
149.621
149.609
149.554
149.462
149.341
149.198
149.039
148.868
148.687
148.497
148.292
148.073
147.834
147.567
147.264
146.907
146.471
145.925
145.237
144.357
143.254
141.876
140.379
138.76
149.294
149.328
149.312
149.253
149.157
149.031
148.879
148.705
148.513
148.302
148.071
147.818
147.535
147.216
146.851
146.423
145.907
145.265
144.44
143.356
141.894
139.928
137.111
133.488
127.34
149.016
149.041
149.017
148.95
148.846
148.71
148.544
148.352
148.134
147.889
147.615
147.304
146.952
146.544
146.065
145.489
144.782
143.886
142.706
141.113
138.841
135.654
130.468
124.201
105.39
148.752
148.763
148.726
148.648
148.532
148.381
148.198
147.983
147.736
147.454
147.13
146.762
146.331
145.825
145.22
144.48
143.552
142.362
140.771
138.576
135.283
130.359
120.577
104.061
45.4488
148.505
148.496
148.443
148.349
148.217
148.049
147.845
147.604
147.325
147.002
146.63
146.194
145.683
145.075
144.337
143.426
142.269
140.767
138.747
135.946
131.779
125.474
114.51
96.5817
66.7044
148.278
148.246
148.172
148.059
147.908
147.719
147.492
147.223
146.909
146.544
146.118
145.618
145.024
144.31
143.44
142.358
140.984
139.196
136.807
133.527
128.883
122.162
112.396
97.8384
80.0741
148.072
148.014
147.917
147.782
147.609
147.398
147.144
146.846
146.497
146.088
145.61
145.043
144.368
143.553
142.555
141.311
139.734
137.693
134.997
131.367
126.4
119.512
110.015
96.7205
79.6547
147.889
147.803
147.681
147.522
147.326
147.089
146.809
146.48
146.096
145.645
145.114
144.487
143.734
142.823
141.707
140.318
138.561
136.301
133.348
129.43
124.181
117.092
107.58
94.8861
78.8497
147.731
147.614
147.465
147.282
147.061
146.8
146.493
146.134
145.715
145.224
144.646
143.96
143.138
142.143
140.923
139.407
137.497
135.053
131.883
127.727
122.231
114.941
105.362
92.9322
77.5082
147.595
147.449
147.273
147.064
146.819
146.533
146.2
145.813
145.362
144.835
144.214
143.479
142.597
141.53
140.225
138.606
136.571
133.979
130.637
126.275
120.549
113
103.141
90.3833
74.6847
147.482
147.307
147.105
146.872
146.603
146.294
145.937
145.524
145.045
144.487
143.831
143.054
142.126
141.004
139.634
137.939
135.813
133.114
129.636
125.114
119.168
111.315
101.013
87.4236
70.6602
147.389
147.187
146.961
146.705
146.415
146.085
145.706
145.272
144.769
144.186
143.503
142.697
141.736
140.578
139.168
137.429
135.252
132.491
128.928
124.28
118.098
109.886
98.8716
83.8941
65.2149
147.315
147.089
146.841
146.565
146.256
145.907
145.511
145.058
144.539
143.938
143.237
142.414
141.436
140.264
138.842
137.096
134.917
132.159
128.583
123.897
117.488
108.838
96.2509
78.8675
54.9317
147.256
147.01
146.743
146.45
146.125
145.761
145.351
144.886
144.355
143.745
143.036
142.209
141.232
140.067
138.664
136.952
134.83
132.157
128.712
124.18
117.895
109.185
94.9965
74.8149
37.3654
147.212
146.949
146.666
146.359
146.022
145.647
145.228
144.756
144.22
143.607
142.902
142.082
141.122
139.987
138.631
136.992
134.984
132.487
129.316
125.213
119.667
112.059
99.7533
81.5926
31.5083
147.178
146.903
146.609
146.291
145.945
145.563
145.14
144.665
144.131
143.524
142.829
142.03
141.101
140.013
138.728
137.195
135.346
133.086
130.288
126.769
122.251
116.395
108.4
98.5687
79.2046
147.154
146.87
146.568
146.244
145.893
145.508
145.084
144.613
144.085
143.49
142.816
142.045
141.16
140.134
138.937
137.531
135.865
133.875
131.477
128.569
125.015
120.669
115.336
109.047
101.344
147.138
146.849
146.542
146.215
145.863
145.479
145.059
144.594
144.078
143.502
142.854
142.12
141.286
140.332
139.234
137.964
136.49
134.769
132.758
130.408
127.677
124.555
121.098
117.592
114.626
147.128
146.837
146.53
146.203
145.852
145.473
145.06
144.607
144.107
143.553
142.936
142.245
141.467
140.589
139.593
138.462
137.173
135.705
134.04
132.161
130.075
127.819
125.5
123.355
121.775
147.124
146.834
146.529
146.205
145.859
145.487
145.084
144.645
144.165
143.637
143.054
142.408
141.69
140.889
139.994
138.994
137.878
136.636
135.265
133.77
132.175
130.535
128.956
127.615
126.745
147.124
146.838
146.537
146.219
145.881
145.518
145.128
144.706
144.248
143.748
143.201
142.602
141.943
141.217
140.418
139.54
138.578
137.531
136.405
135.212
133.984
132.772
131.661
130.767
130.223
147.129
146.848
146.554
146.244
145.914
145.564
145.188
144.785
144.35
143.88
143.37
142.817
142.215
141.561
140.851
140.082