/*--------------------------------*- C++ -*----------------------------------*\
  =========                 |
  \\      /  F ield         | OpenFOAM: The Open Source CFD Toolbox
   \\    /   O peration     | Website:  https://openfoam.org
    \\  /    A nd           | Version:  13
     \\/     M anipulation  |
\*---------------------------------------------------------------------------*/
FoamFile
{
    format      ascii;
    class       volScalarField;
    location    "15";
    object      p;
}
// * * * * * * * * * * * * * * * * * * * * * * * * * * * * * * * * * * * * * //

dimensions      [0 2 -2 0 0 0 0];

internalField   nonuniform List<scalar> 
6440
(
0.000699663
0.000699705
0.000699795
0.000699933
0.000700121
0.000700353
0.000700623
0.00070092
0.000701231
0.000701544
0.000701845
0.000702116
0.000702342
0.000702511
0.000702611
0.000702634
0.000702579
0.000702449
0.00070225
0.000701993
0.000701693
0.000701363
0.000701022
0.000700684
0.000700393
0.00069943
0.000699466
0.000699544
0.000699669
0.000699837
0.000700047
0.000700289
0.00070056
0.00070085
0.000701149
0.000701442
0.000701715
0.000701956
0.000702152
0.000702284
0.000702325
0.000702269
0.000702119
0.000701885
0.000701575
0.0007012
0.000700771
0.000700314
0.000699835
0.000699388
0.000699071
0.000699108
0.000699185
0.000699304
0.000699465
0.000699661
0.000699891
0.000700154
0.00070044
0.00070074
0.000701044
0.000701329
0.000701581
0.000701783
0.000701914
0.000701953
0.00070189
0.000701721
0.000701447
0.000701075
0.000700615
0.000700086
0.000699501
0.000698877
0.000698318
0.000698627
0.000698668
0.000698747
0.000698871
0.000699034
0.000699231
0.000699461
0.000699724
0.000700016
0.000700327
0.000700642
0.000700939
0.000701205
0.00070142
0.000701561
0.000701606
0.00070154
0.000701355
0.000701052
0.000700631
0.000700095
0.000699453
0.000698715
0.000697959
0.000697298
0.000698107
0.000698153
0.000698238
0.000698368
0.000698537
0.00069874
0.000698978
0.000699243
0.000699535
0.000699852
0.000700174
0.000700492
0.000700779
0.000701015
0.000701178
0.000701243
0.000701191
0.000701011
0.000700695
0.000700238
0.00069963
0.00069886
0.000697996
0.000697107
0.000696342
0.000697512
0.000697563
0.000697655
0.000697792
0.000697967
0.000698179
0.000698421
0.000698694
0.000698984
0.0006993
0.000699623
0.00069995
0.000700264
0.00070054
0.000700736
0.000700835
0.000700814
0.000700656
0.000700343
0.000699863
0.00069919
0.000698334
0.00069735
0.000696334
0.000695464
0.000696844
0.0006969
0.000696999
0.000697143
0.00069733
0.000697553
0.000697806
0.000698088
0.000698387
0.0006987
0.000699031
0.000699359
0.000699674
0.00069997
0.000700209
0.000700354
0.000700377
0.000700257
0.000699963
0.000699473
0.000698772
0.000697849
0.000696756
0.000695615
0.000694636
0.000696104
0.000696165
0.000696272
0.000696428
0.000696627
0.000696864
0.000697132
0.000697424
0.000697733
0.000698047
0.000698374
0.000698697
0.00069901
0.000699305
0.000699584
0.000699784
0.00069986
0.000699788
0.000699532
0.000699056
0.000698337
0.000697371
0.000696182
0.000694916
0.000693831
0.000695296
0.000695362
0.000695478
0.000695645
0.000695859
0.000696113
0.000696397
0.000696703
0.000697025
0.000697344
0.000697662
0.000697975
0.000698278
0.000698577
0.000698878
0.000699123
0.000699256
0.000699239
0.00069903
0.00069859
0.000697886
0.000696888
0.00069561
0.000694223
0.000693037
0.000694423
0.000694494
0.000694618
0.000694798
0.000695028
0.0006953
0.000695604
0.000695928
0.000696259
0.000696587
0.000696905
0.00069721
0.000697509
0.000697811
0.000698098
0.000698372
0.000698553
0.000698593
0.000698438
0.000698037
0.000697355
0.000696353
0.000695013
0.000693518
0.000692244
0.000693488
0.000693565
0.000693697
0.00069389
0.000694137
0.00069443
0.000694754
0.000695094
0.000695435
0.00069578
0.000696113
0.000696431
0.000696737
0.000697025
0.000697293
0.000697553
0.000697753
0.000697832
0.000697733
0.000697387
0.000696731
0.000695721
0.000694367
0.000692793
0.000691449
0.000692497
0.000692578
0.000692718
0.000692922
0.000693183
0.000693493
0.000693836
0.000694192
0.000694563
0.000694938
0.000695299
0.000695643
0.00069596
0.000696242
0.000696479
0.00069668
0.000696893
0.000696989
0.000696922
0.000696622
0.000696007
0.000695003
0.000693652
0.00069209
0.000690676
0.000691456
0.000691539
0.000691685
0.000691898
0.00069217
0.000692495
0.000692851
0.000693229
0.000693637
0.000694046
0.000694449
0.000694827
0.000695164
0.00069545
0.000695681
0.000695854
0.000695995
0.000696052
0.000695988
0.000695721
0.000695151
0.000694235
0.000692966
0.00069145
0.000690009
0.000690372
0.000690457
0.000690606
0.000690822
0.000691096
0.000691422
0.000691791
0.000692201
0.000692635
0.000693082
0.000693524
0.000693938
0.000694307
0.000694612
0.000694841
0.000694987
0.000695054
0.000695066
0.000694951
0.000694674
0.000694199
0.000693494
0.000692389
0.000690959
0.000689529
0.00068926
0.000689343
0.000689487
0.000689696
0.000689966
0.000690289
0.000690664
0.000691083
0.000691534
0.000692005
0.000692477
0.000692928
0.000693338
0.000693682
0.00069394
0.000694092
0.000694112
0.000694082
0.0006939
0.000693671
0.000693398
0.000692915
0.000692012
0.000690706
0.000689325
0.000688134
0.000688213
0.000688349
0.000688545
0.000688799
0.000689105
0.000689464
0.000689867
0.000690309
0.000690779
0.000691263
0.000691743
0.000692196
0.000692597
0.000692923
0.000693151
0.00069326
0.000693262
0.000693192
0.000693116
0.000692972
0.000692629
0.000691905
0.000690783
0.000689487
0.000687012
0.000687085
0.000687207
0.000687382
0.000687609
0.000687885
0.000688207
0.000688573
0.000688976
0.000689411
0.00068987
0.000690344
0.00069082
0.00069128
0.000691695
0.00069205
0.00069233
0.000692523
0.00069269
0.000692798
0.000692816
0.000692671
0.000692181
0.00069127
0.000690078
0.000685912
0.000685976
0.00068608
0.000686227
0.000686416
0.000686646
0.000686915
0.00068722
0.000687558
0.000687925
0.000688321
0.000688742
0.000689185
0.000689645
0.00069012
0.000690587
0.000691052
0.000691533
0.000691936
0.000692311
0.000692617
0.000692789
0.000692671
0.000692151
0.000691351
0.000684855
0.000684908
0.00068499
0.0006851
0.000685241
0.00068541
0.000685607
0.00068583
0.000686078
0.000686349
0.000686645
0.000686968
0.000687322
0.000687712
0.000688142
0.000688629
0.000689172
0.00068982
0.000690454
0.000691179
0.000691953
0.000692723
0.000693316
0.000693781
0.000694815
0.000683856
0.000683899
0.000683957
0.000684028
0.000684115
0.000684216
0.000684333
0.000684464
0.000684609
0.000684771
0.000684951
0.000685154
0.000685387
0.00068566
0.000685987
0.000686383
0.000686866
0.000687436
0.000688302
0.000689333
0.000690629
0.000692263
0.000694153
0.000696402
0.000700734
0.000682934
0.000682975
0.000683023
0.000683075
0.000683133
0.000683197
0.000683266
0.000683341
0.000683422
0.00068351
0.000683609
0.000683721
0.000683853
0.000684012
0.000684211
0.000684464
0.000684783
0.000685184
0.000685837
0.000686653
0.000687724
0.000689122
0.00069104
0.000694087
0.000698529
0.000682063
0.000682108
0.000682157
0.000682208
0.000682262
0.00068232
0.000682382
0.000682448
0.00068252
0.000682598
0.000682685
0.000682785
0.000682904
0.000683049
0.000683231
0.000683465
0.000683767
0.000684165
0.000684713
0.000685422
0.000686349
0.000687576
0.00068928
0.000691672
0.000694535
0.000681248
0.000681297
0.00068135
0.000681404
0.000681461
0.000681522
0.000681587
0.000681655
0.000681729
0.000681807
0.000681894
0.000681993
0.000682108
0.000682247
0.000682421
0.00068264
0.000682922
0.000683287
0.000683764
0.000684376
0.000685163
0.000686184
0.000687514
0.000689197
0.000690882
0.000680487
0.000680539
0.000680596
0.000680653
0.000680713
0.000680777
0.000680845
0.000680915
0.00068099
0.000681069
0.000681154
0.000681249
0.000681359
0.000681489
0.000681647
0.000681843
0.00068209
0.000682403
0.0006828
0.000683297
0.000683917
0.000684675
0.000685568
0.000686507
0.000687156
0.000679778
0.000679832
0.000679892
0.000679951
0.000680013
0.000680078
0.000680146
0.000680216
0.000680288
0.000680364
0.000680445
0.000680533
0.000680631
0.000680744
0.000680879
0.000681043
0.000681244
0.000681491
0.000681793
0.000682157
0.000682582
0.000683056
0.000683533
0.000683893
0.000683907
0.000679121
0.000679177
0.000679237
0.000679297
0.000679359
0.000679423
0.00067949
0.000679557
0.000679625
0.000679695
0.000679767
0.000679842
0.000679924
0.000680016
0.000680121
0.000680245
0.000680391
0.000680564
0.000680764
0.000680987
0.000681222
0.000681438
0.00068158
0.000681545
0.000681191
0.000678515
0.000678572
0.000678632
0.000678692
0.000678752
0.000678814
0.000678877
0.00067894
0.000679001
0.000679062
0.000679122
0.000679182
0.000679244
0.000679309
0.000679381
0.000679459
0.000679547
0.000679642
0.000679741
0.000679833
0.000679898
0.000679905
0.000679799
0.000679507
0.00067894
0.00067796
0.000678016
0.000678076
0.000678134
0.000678192
0.00067825
0.000678308
0.000678364
0.000678417
0.000678467
0.000678513
0.000678556
0.000678595
0.000678632
0.000678666
0.000678699
0.000678728
0.000678748
0.000678754
0.00067873
0.000678656
0.000678501
0.000678222
0.000677765
0.000677076
0.000677454
0.000677509
0.000677568
0.000677623
0.000677677
0.000677731
0.000677783
0.000677831
0.000677874
0.000677911
0.000677942
0.000677965
0.000677981
0.000677988
0.000677987
0.000677974
0.000677947
0.0006779
0.000677824
0.000677704
0.00067752
0.000677245
0.000676847
0.000676288
0.000675533
0.000676997
0.00067705
0.000677106
0.000677158
0.000677208
0.000677256
0.000677301
0.00067734
0.000677372
0.000677396
0.000677411
0.000677415
0.000677406
0.000677385
0.000677348
0.000677294
0.000677217
0.00067711
0.000676965
0.000676767
0.0006765
0.00067614
0.000675664
0.000675044
0.000674258
0.000676586
0.000676637
0.00067669
0.000676738
0.000676783
0.000676825
0.000676862
0.000676891
0.000676912
0.000676923
0.000676921
0.000676906
0.000676874
0.000676826
0.000676757
0.000676664
0.000676543
0.000676387
0.000676185
0.000675927
0.000675598
0.000675179
0.000674653
0.000674
0.000673207
0.000676221
0.000676269
0.000676319
0.000676363
0.000676402
0.000676437
0.000676466
0.000676486
0.000676495
0.000676492
0.000676474
0.00067644
0.000676387
0.000676313
0.000676216
0.00067609
0.000675932
0.000675734
0.000675488
0.000675185
0.000674811
0.000674353
0.000673797
0.000673131
0.000672344
0.000675899
0.000675945
0.000675991
0.00067603
0.000676064
0.000676092
0.000676112
0.000676122
0.00067612
0.000676104
0.000676071
0.00067602
0.000675947
0.000675851
0.000675728
0.000675574
0.000675384
0.000675154
0.000674874
0.000674537
0.000674132
0.00067365
0.00067308
0.000672413
0.000671642
0.000675621
0.000675664
0.000675705
0.00067574
0.000675768
0.000675789
0.000675801
0.000675801
0.000675788
0.000675759
0.000675713
0.000675645
0.000675555
0.000675439
0.000675294
0.000675116
0.000674902
0.000674646
0.000674341
0.00067398
0.000673556
0.000673061
0.000672487
0.000671827
0.000671077
0.000675383
0.000675423
0.000675461
0.00067549
0.000675512
0.000675526
0.00067553
0.000675522
0.000675498
0.000675458
0.000675398
0.000675316
0.00067521
0.000675077
0.000674914
0.000674718
0.000674485
0.000674209
0.000673886
0.00067351
0.000673075
0.000672575
0.000672004
0.000671357
0.000670631
0.000675185
0.000675222
0.000675255
0.00067528
0.000675297
0.000675304
0.0006753
0.000675283
0.00067525
0.000675198
0.000675127
0.000675033
0.000674914
0.000674767
0.000674589
0.000674378
0.000674129
0.00067384
0.000673505
0.00067312
0.000672681
0.000672181
0.000671619
0.000670989
0.00067029
0.000675025
0.000675058
0.000675088
0.000675108
0.000675119
0.00067512
0.000675109
0.000675083
0.000675041
0.000674981
0.000674899
0.000674794
0.000674664
0.000674505
0.000674316
0.000674094
0.000673835
0.000673536
0.000673194
0.000672806
0.000672366
0.000671872
0.000671322
0.000670711
0.00067004
0.000674901
0.000674931
0.000674957
0.000674973
0.000674979
0.000674973
0.000674955
0.000674923
0.000674873
0.000674804
0.000674713
0.000674599
0.000674459
0.000674292
0.000674094
0.000673863
0.000673598
0.000673294
0.000672949
0.00067256
0.000672125
0.00067164
0.000671104
0.000670514
0.000669871
0.000674811
0.000674839
0.000674861
0.000674873
0.000674873
0.000674863
0.000674839
0.000674799
0.000674742
0.000674666
0.000674568
0.000674446
0.000674299
0.000674125
0.00067392
0.000673685
0.000673415
0.000673109
0.000672764
0.000672379
0.00067195
0.000671477
0.000670957
0.00067039
0.000669774
0.000674755
0.00067478
0.000674799
0.000674806
0.000674802
0.000674786
0.000674757
0.000674711
0.000674648
0.000674565
0.000674461
0.000674334
0.000674181
0.000674002
0.000673793
0.000673554
0.000673283
0.000672977
0.000672636
0.000672256
0.000671837
0.000671377
0.000670874
0.000670329
0.000669741
0.000674729
0.000674752
0.000674768
0.000674772
0.000674764
0.000674743
0.000674708
0.000674658
0.000674589
0.000674501
0.000674392
0.00067426
0.000674103
0.00067392
0.00067371
0.00067347
0.000673199
0.000672896
0.000672559
0.000672187
0.000671779
0.000671333
0.000670849
0.000670327
0.000669766
0.000674734
0.000674754
0.000674767
0.000674767
0.000674756
0.000674731
0.000674692
0.000674636
0.000674563
0.000674471
0.000674358
0.000674222
0.000674063
0.000673878
0.000673667
0.000673428
0.000673159
0.000672861
0.00067253
0.000672168
0.000671771
0.000671341
0.000670876
0.000670376
0.000669842
0.000674766
0.000674785
0.000674794
0.000674792
0.000674777
0.000674748
0.000674705
0.000674646
0.000674569
0.000674474
0.000674357
0.000674219
0.000674059
0.000673873
0.000673663
0.000673426
0.000673161
0.000672868
0.000672545
0.000672193
0.000671809
0.000671395
0.000670949
0.000670472
0.000669964
0.000674825
0.000674841
0.000674849
0.000674843
0.000674825
0.000674793
0.000674747
0.000674685
0.000674605
0.000674506
0.000674388
0.000674249
0.000674087
0.000673903
0.000673694
0.00067346
0.0006732
0.000672914
0.0006726
0.000672259
0.000671889
0.000671491
0.000671064
0.00067061
0.000670127
0.000674908
0.000674923
0.000674928
0.00067492
0.000674899
0.000674865
0.000674815
0.00067475
0.000674668
0.000674568
0.000674448
0.000674309
0.000674147
0.000673964
0.000673758
0.000673529
0.000673275
0.000672996
0.000672692
0.000672362
0.000672006
0.000671624
0.000671217
0.000670784
0.000670327
0.000675015
0.000675027
0.00067503
0.00067502
0.000674997
0.00067496
0.000674909
0.000674842
0.000674758
0.000674656
0.000674536
0.000674396
0.000674236
0.000674055
0.000673853
0.000673628
0.000673381
0.00067311
0.000672816
0.000672498
0.000672157
0.000671792
0.000671403
0.000670992
0.000670559
0.000675142
0.000675153
0.000675155
0.000675143
0.000675117
0.000675079
0.000675025
0.000674956
0.000674871
0.000674769
0.000674649
0.00067451
0.000674352
0.000674174
0.000673976
0.000673756
0.000673516
0.000673254
0.00067297
0.000672665
0.000672338
0.000671989
0.000671619
0.000671229
0.000670819
0.00067529
0.0006753
0.000675299
0.000675285
0.000675258
0.000675218
0.000675163
0.000675093
0.000675007
0.000674905
0.000674785
0.000674648
0.000674492
0.000674317
0.000674124
0.00067391
0.000673677
0.000673424
0.000673151
0.000672858
0.000672546
0.000672213
0.000671862
0.000671492
0.000671105
0.000675456
0.000675464
0.000675462
0.000675447
0.000675419
0.000675377
0.000675321
0.00067525
0.000675164
0.000675062
0.000674943
0.000674807
0.000674654
0.000674484
0.000674295
0.000674088
0.000673863
0.000673619
0.000673357
0.000673076
0.000672778
0.000672461
0.000672128
0.000671778
0.000671412
0.000675639
0.000675646
0.000675643
0.000675626
0.000675597
0.000675554
0.000675497
0.000675426
0.000675339
0.000675238
0.00067512
0.000674987
0.000674837
0.000674671
0.000674487
0.000674287
0.00067407
0.000673835
0.000673584
0.000673316
0.000673031
0.00067273
0.000672414
0.000672083
0.000671739
0.000675837
0.000675843
0.000675838
0.000675821
0.00067579
0.000675747
0.000675689
0.000675618
0.000675532
0.000675431
0.000675316
0.000675185
0.000675039
0.000674877
0.000674699
0.000674505
0.000674296
0.000674071
0.00067383
0.000673574
0.000673303
0.000673018
0.000672718
0.000672406
0.000672082
0.000676049
0.000676054
0.000676049
0.00067603
0.000675999
0.000675955
0.000675897
0.000675826
0.000675741
0.000675641
0.000675527
0.000675399
0.000675257
0.000675099
0.000674927
0.00067474
0.000674539
0.000674323
0.000674093
0.000673849
0.000673591
0.000673321
0.000673038
0.000672744
0.000672439
0.000676274
0.000676278
0.000676272
0.000676252
0.000676221
0.000676176
0.000676118
0.000676047
0.000675963
0.000675865
0.000675754
0.000675628
0.000675489
0.000675337
0.000675171
0.000674991
0.000674797
0.000674591
0.000674371
0.000674139
0.000673894
0.000673638
0.000673371
0.000673094
0.000672807
0.00067651
0.000676513
0.000676506
0.000676486
0.000676454
0.000676409
0.000676352
0.000676282
0.000676198
0.000676102
0.000675993
0.000675871
0.000675736
0.000675588
0.000675428
0.000675255
0.000675069
0.000674872
0.000674662
0.000674441
0.000674209
0.000673967
0.000673715
0.000673454
0.000673185
0.000676756
0.000676759
0.000676751
0.000676731
0.000676698
0.000676654
0.000676596
0.000676527
0.000676445
0.00067635
0.000676243
0.000676125
0.000675994
0.000675851
0.000675696
0.00067553
0.000675353
0.000675164
0.000674964
0.000674755
0.000674535
0.000674306
0.000674068
0.000673823
0.000673571
0.000677011
0.000677013
0.000677005
0.000676984
0.000676952
0.000676907
0.00067685
0.000676782
0.000676701
0.000676608
0.000676504
0.000676389
0.000676262
0.000676124
0.000675975
0.000675816
0.000675646
0.000675466
0.000675276
0.000675077
0.000674869
0.000674653
0.000674429
0.000674199
0.000673963
0.000677274
0.000677275
0.000677266
0.000677245
0.000677213
0.000677169
0.000677113
0.000677045
0.000676966
0.000676876
0.000676774
0.000676662
0.000676539
0.000676406
0.000676263
0.00067611
0.000675948
0.000675776
0.000675596
0.000675407
0.00067521
0.000675006
0.000674796
0.00067458
0.000674359
0.000677543
0.000677544
0.000677535
0.000677514
0.000677481
0.000677438
0.000677382
0.000677316
0.000677238
0.00067715
0.000677051
0.000676943
0.000676824
0.000676696
0.000676559
0.000676412
0.000676257
0.000676093
0.000675922
0.000675743
0.000675557
0.000675365
0.000675167
0.000674964
0.000674758
0.000677818
0.000677818
0.000677809
0.000677788
0.000677756
0.000677713
0.000677658
0.000677593
0.000677517
0.000677431
0.000677335
0.00067723
0.000677115
0.000676992
0.00067686
0.00067672
0.000676572
0.000676416
0.000676253
0.000676084
0.000675908
0.000675727
0.000675542
0.000675352
0.000675159
0.000678097
0.000678097
0.000678087
0.000678067
0.000678035
0.000677993
0.000677939
0.000677875
0.000677801
0.000677717
0.000677624
0.000677522
0.000677412
0.000677293
0.000677167
0.000677033
0.000676891
0.000676743
0.000676589
0.000676429
0.000676263
0.000676092
0.000675918
0.00067574
0.00067556
0.000678379
0.000678379
0.00067837
0.00067835
0.000678318
0.000678277
0.000678224
0.000678162
0.00067809
0.000678008
0.000677918
0.000677819
0.000677713
0.000677599
0.000677477
0.000677349
0.000677214
0.000677074
0.000676927
0.000676776
0.000676619
0.000676459
0.000676295
0.000676129
0.00067596
0.000678665
0.000678664
0.000678655
0.000678635
0.000678605
0.000678564
0.000678513
0.000678452
0.000678381
0.000678302
0.000678215
0.000678119
0.000678017
0.000677907
0.000677791
0.000677668
0.00067754
0.000677406
0.000677267
0.000677124
0.000676977
0.000676826
0.000676672
0.000676516
0.000676359
0.000678952
0.000678951
0.000678943
0.000678923
0.000678893
0.000678853
0.000678803
0.000678744
0.000678676
0.000678599
0.000678514
0.000678422
0.000678323
0.000678218
0.000678106
0.000677989
0.000677867
0.00067774
0.000677608
0.000677473
0.000677334
0.000677192
0.000677048
0.000676903
0.000676756
0.00067924
0.00067924
0.000679231
0.000679212
0.000679183
0.000679144
0.000679096
0.000679038
0.000678971
0.000678897
0.000678815
0.000678726
0.000678631
0.00067853
0.000678423
0.000678311
0.000678195
0.000678074
0.00067795
0.000677822
0.000677691
0.000677557
0.000677422
0.000677286
0.00067715
0.000679528
0.000679528
0.00067952
0.000679502
0.000679474
0.000679436
0.000679389
0.000679333
0.000679268
0.000679196
0.000679117
0.000679031
0.000678939
0.000678842
0.00067874
0.000678634
0.000678523
0.000678408
0.00067829
0.000678169
0.000678046
0.00067792
0.000677794
0.000677667
0.000677539
0.000679816
0.000679816
0.000679809
0.000679792
0.000679765
0.000679728
0.000679682
0.000679628
0.000679565
0.000679495
0.000679419
0.000679336
0.000679248
0.000679155
0.000679057
0.000678955
0.00067885
0.000678741
0.000678629
0.000678515
0.000678398
0.000678281
0.000678162
0.000678043
0.000677925
0.000680102
0.000680104
0.000680097
0.000680081
0.000680055
0.00068002
0.000679975
0.000679922
0.000679862
0.000679794
0.00067972
0.000679641
0.000679556
0.000679466
0.000679373
0.000679275
0.000679175
0.000679071
0.000678965
0.000678858
0.000678748
0.000678637
0.000678526
0.000678415
0.000678305
0.000680387
0.000680389
0.000680384
0.000680369
0.000680344
0.00068031
0.000680267
0.000680216
0.000680158
0.000680092
0.000680021
0.000679944
0.000679862
0.000679777
0.000679687
0.000679594
0.000679498
0.0006794
0.000679299
0.000679197
0.000679094
0.00067899
0.000678886
0.000678782
0.000678679
0.00068067
0.000680673
0.000680669
0.000680655
0.000680631
0.000680599
0.000680558
0.000680508
0.000680452
0.000680389
0.00068032
0.000680246
0.000680167
0.000680085
0.000679999
0.00067991
0.000679819
0.000679725
0.00067963
0.000679533
0.000679436
0.000679338
0.000679241
0.000679144
0.000679048
0.00068095
0.000680954
0.000680951
0.000680938
0.000680917
0.000680886
0.000680846
0.000680799
0.000680744
0.000680683
0.000680617
0.000680545
0.00068047
0.00068039
0.000680308
0.000680223
0.000680136
0.000680047
0.000679956
0.000679865
0.000679773
0.000679682
0.00067959
0.000679499
0.00067941
0.000681226
0.000681232
0.000681231
0.00068122
0.000681199
0.00068117
0.000681132
0.000681087
0.000681034
0.000680976
0.000680911
0.000680842
0.00068077
0.000680693
0.000680614
0.000680533
0.000680449
0.000680365
0.000680279
0.000680192
0.000680106
0.000680019
0.000679933
0.000679849
0.000679765
0.000681499
0.000681506
0.000681507
0.000681498
0.000681479
0.000681452
0.000681416
0.000681373
0.000681322
0.000681265
0.000681203
0.000681137
0.000681066
0.000680993
0.000680917
0.000680839
0.000680759
0.000680678
0.000680596
0.000680514
0.000680432
0.000680351
0.00068027
0.000680191
0.000680113
0.000681768
0.000681777
0.00068178
0.000681773
0.000681756
0.000681731
0.000681697
0.000681655
0.000681607
0.000681552
0.000681492
0.000681428
0.00068136
0.000681289
0.000681215
0.00068114
0.000681064
0.000680986
0.000680908
0.000680831
0.000680753
0.000680676
0.0006806
0.000680526
0.000680454
0.000682032
0.000682044
0.000682049
0.000682044
0.00068203
0.000682007
0.000681975
0.000681935
0.000681888
0.000681835
0.000681777
0.000681715
0.000681649
0.000681581
0.00068151
0.000681437
0.000681364
0.00068129
0.000681215
0.000681141
0.000681067
0.000680995
0.000680923
0.000680854
0.000680786
0.000682292
0.000682306
0.000682315
0.000682313
0.000682301
0.00068228
0.00068225
0.000682212
0.000682167
0.000682116
0.000682059
0.000681999
0.000681935
0.000681868
0.0006818
0.00068173
0.000681659
0.000681587
0.000681516
0.000681445
0.000681375
0.000681306
0.000681239
0.000681173
0.000681111
0.000682547
0.000682565
0.000682576
0.000682577
0.000682568
0.000682549
0.000682521
0.000682485
0.000682442
0.000682393
0.000682338
0.000682279
0.000682217
0.000682152
0.000682085
0.000682017
0.000681948
0.000681879
0.00068181
0.000681742
0.000681675
0.00068161
0.000681546
0.000681485
0.000681426
0.000682797
0.000682819
0.000682834
0.000682838
0.000682832
0.000682816
0.00068279
0.000682756
0.000682714
0.000682666
0.000682613
0.000682555
0.000682494
0.00068243
0.000682365
0.000682298
0.000682231
0.000682164
0.000682098
0.000682032
0.000681968
0.000681906
0.000681845
0.000681788
0.000681733
0.000683043
0.000683069
0.000683089
0.000683097
0.000683093
0.00068308
0.000683056
0.000683024
0.000682984
0.000682937
0.000682884
0.000682827
0.000682767
0.000682704
0.00068264
0.000682574
0.000682509
0.000682443
0.000682378
0.000682315
0.000682253
0.000682193
0.000682136
0.000682081
0.00068203
0.000683284
0.000683315
0.00068334
0.000683352
0.000683352
0.000683341
0.00068332
0.000683289
0.00068325
0.000683204
0.000683152
0.000683095
0.000683036
0.000682973
0.000682909
0.000682844
0.000682779
0.000682715
0.000682652
0.00068259
0.00068253
0.000682472
0.000682418
0.000682366
0.000682317
0.00068352
0.000683557
0.000683588
0.000683605
0.000683609
0.000683601
0.000683582
0.000683553
0.000683514
0.000683468
0.000683417
0.00068336
0.0006833
0.000683237
0.000683173
0.000683108
0.000683043
0.00068298
0.000682917
0.000682856
0.000682798
0.000682742
0.000682689
0.00068264
0.000682595
0.000683753
0.000683796
0.000683834
0.000683857
0.000683865
0.00068386
0.000683843
0.000683814
0.000683777
0.000683731
0.000683678
0.00068362
0.000683559
0.000683496
0.000683431
0.000683365
0.0006833
0.000683236
0.000683174
0.000683114
0.000683057
0.000683002
0.000682951
0.000682904
0.000682861
0.000683982
0.000684034
0.00068408
0.000684108
0.00068412
0.000684119
0.000684103
0.000684076
0.000684037
0.00068399
0.000683937
0.000683877
0.000683815
0.000683749
0.000683683
0.000683616
0.00068355
0.000683485
0.000683423
0.000683363
0.000683306
0.000683252
0.000683203
0.000683158
0.000683117
0.000684208
0.00068427
0.000684325
0.00068436
0.000684377
0.000684378
0.000684364
0.000684337
0.000684298
0.000684249
0.000684193
0.000684131
0.000684065
0.000683997
0.000683928
0.000683859
0.000683791
0.000683725
0.000683662
0.000683601
0.000683544
0.000683491
0.000683443
0.000683399
0.000683361
0.000684434
0.000684507
0.000684573
0.000684615
0.000684637
0.000684641
0.000684628
0.000684599
0.000684558
0.000684506
0.000684446
0.000684381
0.000684311
0.000684239
0.000684167
0.000684095
0.000684024
0.000683956
0.000683891
0.000683829
0.000683772
0.000683719
0.000683671
0.000683629
0.000683592
0.00068466
0.000684746
0.000684825
0.000684876
0.000684903
0.000684909
0.000684895
0.000684864
0.000684819
0.000684763
0.000684698
0.000684627
0.000684552
0.000684475
0.000684398
0.000684322
0.000684248
0.000684177
0.00068411
0.000684046
0.000683988
0.000683935
0.000683887
0.000683846
0.00068381
0.000684888
0.000684991
0.000685084
0.000685144
0.000685176
0.000685183
0.000685168
0.000685133
0.000685083
0.00068502
0.000684948
0.00068487
0.000684788
0.000684705
0.000684622
0.00068454
0.000684462
0.000684387
0.000684317
0.000684251
0.000684192
0.000684138
0.00068409
0.000684049
0.000684015
0.000685122
0.000685245
0.000685355
0.000685425
0.000685461
0.000685468
0.000685449
0.000685408
0.000685349
0.000685277
0.000685196
0.000685109
0.000685018
0.000684927
0.000684837
0.000684749
0.000684665
0.000684586
0.000684512
0.000684443
0.000684382
0.000684327
0.000684279
0.000684238
0.000684204
0.000685365
0.000685513
0.000685643
0.000685724
0.000685763
0.000685767
0.000685741
0.00068569
0.00068562
0.000685536
0.000685442
0.000685343
0.000685242
0.000685141
0.000685042
0.000684947
0.000684856
0.000684771
0.000684693
0.000684622
0.000684557
0.000684501
0.000684452
0.000684411
0.000684379
0.000685624
0.000685802
0.000685955
0.000686047
0.000686087
0.000686084
0.000686047
0.000685981
0.000685895
0.000685795
0.000685686
0.000685572
0.000685458
0.000685345
0.000685236
0.000685132
0.000685034
0.000684943
0.00068486
0.000684785
0.000684718
0.000684659
0.00068461
0.000684569
0.000684537
0.000685908
0.000686122
0.000686303
0.000686404
0.00068644
0.000686425
0.000686369
0.000686283
0.000686176
0.000686054
0.000685926
0.000685795
0.000685665
0.000685538
0.000685417
0.000685303
0.000685197
0.0006851
0.000685011
0.000684932
0.000684862
0.000684801
0.00068475
0.000684709
0.000684678
0.000686229
0.00068649
0.000686701
0.000686806
0.000686831
0.000686794
0.000686711
0.000686596
0.000686461
0.000686313
0.00068616
0.000686008
0.00068586
0.000685718
0.000685584
0.000685459
0.000685344
0.00068524
0.000685145
0.000685062
0.000684988
0.000684925
0.000684873
0.000684831
0.0006848
0.000686609
0.000686925
0.000687169
0.000687271
0.00068727
0.000687198
0.000687076
0.000686921
0.000686748
0.000686568
0.000686386
0.000686209
0.00068604
0.000685881
0.000685733
0.000685597
0.000685473
0.000685361
0.000685261
0.000685173
0.000685096
0.000685031
0.000684977
0.000684935
0.000684904
0.000687083
0.000687464
0.000687737
0.000687818
0.000687771
0.000687642
0.000687463
0.000687255
0.000687036
0.000686814
0.000686599
0.000686395
0.000686203
0.000686026
0.000685863
0.000685715
0.000685582
0.000685462
0.000685357
0.000685264
0.000685184
0.000685117
0.000685062
0.000685019
0.000684989
0.000687714
0.00068816
0.000688445
0.000688472
0.000688343
0.000688129
0.00068787
0.000687593
0.000687315
0.000687046
0.000686793
0.000686558
0.000686343
0.000686147
0.000685969
0.00068581
0.000685668
0.000685542
0.000685431
0.000685334
0.000685252
0.000685183
0.000685127
0.000685084
0.000685053
0.000688617
0.0006891
0.000689351
0.000689262
0.000688997
0.000688656
0.000688289
0.000687924
0.000687576
0.000687254
0.00068696
0.000686693
0.000686454
0.00068624
0.000686049
0.00068588
0.00068573
0.000685598
0.000685483
0.000685383
0.000685298
0.000685228
0.000685171
0.000685127
0.000685097
0.000689999
0.000690417
0.000690526
0.000690215
0.000689732
0.00068921
0.000688701
0.000688229
0.000687804
0.000687424
0.000687089
0.000686793
0.000686532
0.000686302
0.000686099
0.000685922
0.000685765
0.000685629
0.000685511
0.000685409
0.000685323
0.000685251
0.000685194
0.00068515
0.00068512
0.000692216
0.000692307
0.000692044
0.000691336
0.000690522
0.000689753
0.000689073
0.000688484
0.000687977
0.000687542
0.000687169
0.000686847
0.000686569
0.000686327
0.000686117
0.000685934
0.000685774
0.000685635
0.000685515
0.000685412
0.000685325
0.000685254
0.000685196
0.000685153
0.000685123
0.000696174
0.000695173
0.000693958
0.00069256
0.000691281
0.000690215
0.000689347
0.00068864
0.000688062
0.000687584
0.000687184
0.000686846
0.000686558
0.000686311
0.000686097
0.000685912
0.000685752
0.000685613
0.000685493
0.000685391
0.000685305
0.000685234
0.000685177
0.000685134
0.000685104
0.000705081
0.000699909
0.000696201
0.000693678
0.000691826
0.000690449
0.00068942
0.000688633
0.000688016
0.000687521
0.000687115
0.000686776
0.00068649
0.000686246
0.000686035
0.000685854
0.000685696
0.00068556