/*--------------------------------*- C++ -*----------------------------------*\
  =========                 |
  \\      /  F ield         | OpenFOAM: The Open Source CFD Toolbox
   \\    /   O peration     | Website:  https://openfoam.org
    \\  /    A nd           | Version:  13
     \\/     M anipulation  |
\*---------------------------------------------------------------------------*/
FoamFile
{
    format      ascii;
    class       surfaceScalarField;
    location    "15";
    object      phi;
}
// * * * * * * * * * * * * * * * * * * * * * * * * * * * * * * * * * * * * * //

dimensions      [0 3 -1 0 0 0 0];

internalField   nonuniform List<scalar> 
12590
(
-1.53959e-13
1.53959e-13
-3.78872e-13
2.24914e-13
-6.35509e-13
2.56637e-13
-9.31878e-13
2.9637e-13
-1.24723e-12
3.15357e-13
-1.5607e-12
3.13463e-13
-1.85084e-12
2.90145e-13
-2.09626e-12
2.45423e-13
-2.27826e-12
1.81997e-13
-2.38108e-12
1.02818e-13
-2.39654e-12
1.54676e-14
-2.31501e-12
-8.15314e-14
-2.13197e-12
-1.83044e-13
-1.85078e-12
-2.81189e-13
-1.47647e-12
-3.74311e-13
-1.03844e-12
-4.38029e-13
-5.75093e-13
-4.63346e-13
-1.2471e-13
-4.50384e-13
2.75383e-13
-4.00094e-13
5.92222e-13
-3.1684e-13
7.98817e-13
-2.06597e-13
8.68194e-13
-6.93783e-14
7.82768e-13
8.54227e-14
4.48077e-13
3.34688e-13
4.48077e-13
-1.56282e-13
3.10242e-13
-4.1472e-13
4.83353e-13
-7.27745e-13
5.69663e-13
-1.08728e-12
6.55907e-13
-1.46934e-12
6.97411e-13
-1.8184e-12
6.62525e-13
-2.10552e-12
5.77268e-13
-2.29586e-12
4.35769e-13
-2.36626e-12
2.52393e-13
-2.3012e-12
3.77582e-14
-2.08094e-12
-2.04795e-13
-1.7149e-12
-4.47568e-13
-1.22646e-12
-6.71482e-13
-6.51377e-13
-8.56273e-13
-4.41009e-14
-9.81587e-13
5.64238e-13
-1.04637e-12
1.11987e-12
-1.01898e-12
1.55688e-12
-8.87388e-13
1.81127e-12
-6.54485e-13
1.8407e-12
-3.46272e-13
1.63369e-12
4.10656e-16
1.18991e-12
3.74401e-13
6.81545e-13
5.93783e-13
2.62888e-13
7.53343e-13
7.10965e-13
-1.45085e-13
4.55327e-13
-3.83588e-13
7.21856e-13
-6.82164e-13
8.6824e-13
-1.0359e-12
1.00965e-12
-1.39699e-12
1.0585e-12
-1.71572e-12
9.81253e-13
-1.93209e-12
7.93644e-13
-2.03795e-12
5.4163e-13
-2.01059e-12
2.25029e-13
-1.83889e-12
-1.3394e-13
-1.52994e-12
-5.13742e-13
-1.08761e-12
-8.899e-13
-5.30248e-13
-1.22884e-12
1.08615e-13
-1.49514e-12
7.8177e-13
-1.65474e-12
1.41146e-12
-1.67606e-12
1.92279e-12
-1.53031e-12
2.24782e-12
-1.21242e-12
2.34833e-12
-7.54997e-13
2.2101e-12
-2.08036e-13
1.75251e-12
4.57991e-13
1.18732e-12
9.39591e-13
6.10508e-13
1.17059e-12
1.91204e-13
1.17264e-12
9.02169e-13
-1.30688e-13
5.86016e-13
-3.33217e-13
9.24386e-13
-6.15248e-13
1.15027e-12
-9.51055e-13
1.34545e-12
-1.3014e-12
1.40884e-12
-1.62316e-12
1.30301e-12
-1.84459e-12
1.01508e-12
-1.96109e-12
6.58129e-13
-1.96466e-12
2.28597e-13
-1.84658e-12
-2.52018e-13
-1.61025e-12
-7.50077e-13
-1.2515e-12
-1.24865e-12
-7.97606e-13
-1.68274e-12
-2.83555e-13
-2.00919e-12
2.43669e-13
-2.18197e-12
7.29303e-13
-2.1617e-12
1.12687e-12
-1.92788e-12
1.39632e-12
-1.48187e-12
1.50257e-12
-8.61244e-13
1.43966e-12
-1.45134e-13
1.14537e-12
7.52289e-13
7.4917e-13
1.33578e-12
3.80202e-13
1.53956e-12
1.30709e-13
1.42213e-12
1.03288e-12
-1.23025e-13
7.0904e-13
-3.08983e-13
1.11034e-12
-5.92419e-13
1.43371e-12
-9.57782e-13
1.71082e-12
-1.34683e-12
1.79789e-12
-1.716e-12
1.67218e-12
-2.00969e-12
1.30877e-12
-2.19895e-12
8.47387e-13
-2.27589e-12
3.05539e-13
-2.2465e-12
-2.81408e-13
-2.14235e-12
-8.5423e-13
-1.95516e-12
-1.43584e-12
-1.67689e-12
-1.961e-12
-1.32059e-12
-2.36549e-12
-9.2567e-13
-2.57689e-12
-5.2971e-13
-2.55766e-12
-1.7138e-13
-2.28621e-12
1.23985e-13
-1.77724e-12
3.40158e-13
-1.07742e-12
4.65763e-13
-2.70742e-13
4.50476e-13
7.67574e-13
3.0665e-13
1.47961e-12
1.696e-13
1.6766e-12
6.38648e-14
1.52787e-12
1.09674e-12
-1.20201e-13
8.29241e-13
-3.05826e-13
1.29597e-12
-6.14159e-13
1.74204e-12
-1.02625e-12
2.12291e-12
-1.4648e-12
2.23644e-12
-1.88081e-12
2.08818e-12
-2.27215e-12
1.70012e-12
-2.52858e-12
1.10381e-12
-2.75595e-12
5.3291e-13
-2.84754e-12
-1.89821e-13
-2.86493e-12
-8.36837e-13
-2.82084e-12
-1.47993e-12
-2.67724e-12
-2.1046e-12
-2.44972e-12
-2.59301e-12
-2.15643e-12
-2.87018e-12
-1.80673e-12
-2.90736e-12
-1.43149e-12
-2.66145e-12
-1.05653e-12
-2.1522e-12
-7.03773e-13
-1.43018e-12
-3.88865e-13
-5.85651e-13
-4.84771e-14
4.27184e-13
7.20728e-14
1.35906e-12
9.45014e-14
1.65417e-12
5.10404e-14
1.57132e-12
1.14778e-12
-1.18826e-13
9.48065e-13
-3.13326e-13
1.49047e-12
-6.57772e-13
2.08648e-12
-1.11791e-12
2.58304e-12
-1.62711e-12
2.74564e-12
-2.11138e-12
2.57245e-12
-2.53895e-12
2.12768e-12
-2.87582e-12
1.44068e-12
-3.12636e-12
7.83444e-13
-3.34262e-12
2.64436e-14
-3.44737e-12
-7.32092e-13
-3.48328e-12
-1.44402e-12
-3.45891e-12
-2.12897e-12
-3.2694e-12
-2.78253e-12
-3.01857e-12
-3.121e-12
-2.67778e-12
-3.24815e-12
-2.26167e-12
-3.07756e-12
-1.80428e-12
-2.60959e-12
-1.32682e-12
-1.90764e-12
-8.57658e-13
-1.05481e-12
-2.89473e-13
-1.41003e-13
1.26375e-14
1.05694e-12
6.26364e-14
1.60417e-12
6.50628e-14
1.56889e-12
1.21284e-12
-1.18628e-13
1.06669e-12
-3.23691e-13
1.69553e-12
-6.99002e-13
2.46179e-12
-1.20165e-12
3.08568e-12
-1.7568e-12
3.30079e-12
-2.26651e-12
3.08216e-12
-2.71218e-12
2.57335e-12
-3.05992e-12
1.78842e-12
-3.29771e-12
1.02122e-12
-3.48173e-12
2.1046e-13
-3.5856e-12
-6.28224e-13
-3.62075e-12
-1.40886e-12
-3.61426e-12
-2.13547e-12
-3.56075e-12
-2.83604e-12
-3.26952e-12
-3.41224e-12
-2.91252e-12
-3.60516e-12
-2.45326e-12
-3.53682e-12
-1.92096e-12
-3.14189e-12
-1.37352e-12
-2.45508e-12
-8.53696e-13
-1.57464e-12
-3.70579e-13
-6.24122e-13
4.3523e-14
6.42838e-13
1.21779e-13
1.52591e-12
9.758e-14
1.59309e-12
1.31042e-12
-1.15303e-13
1.18199e-12
-3.31999e-13
1.91222e-12
-7.20461e-13
2.85025e-12
-1.22635e-12
3.59157e-12
-1.76291e-12
3.83735e-12
-2.24388e-12
3.56312e-12
-2.63068e-12
2.96015e-12
-2.91114e-12
2.06887e-12
-3.05364e-12
1.16373e-12
-3.119e-12
2.75811e-13
-3.11845e-12
-6.28777e-13
-3.06082e-12
-1.46649e-12
-2.96602e-12
-2.23027e-12
-2.87447e-12
-2.92759e-12
-2.648e-12
-3.63872e-12
-2.2877e-12
-3.96545e-12
-1.85224e-12
-3.97229e-12
-1.32553e-12
-3.6686e-12
-7.63523e-13
-3.01709e-12
-2.87057e-13
-2.05111e-12
4.25739e-14
-9.53755e-13
3.65443e-13
3.19967e-13
3.53864e-13
1.53749e-12
1.60361e-13
1.78659e-12
1.47078e-12
-1.06173e-13
1.28816e-12
-3.05161e-13
2.1112e-12
-6.60999e-13
3.20608e-12
-1.10456e-12
4.03513e-12
-1.52983e-12
4.26261e-12
-1.88905e-12
3.92233e-12
-2.10961e-12
3.18071e-12
-2.19477e-12
2.15403e-12
-2.17746e-12
1.14641e-12
-2.04734e-12
1.45684e-13
-1.83269e-12
-8.43428e-13
-1.54821e-12
-1.75098e-12
-1.245e-12
-2.53349e-12
-1.03146e-12
-3.14113e-12
-9.43069e-13
-3.72711e-12
-5.68832e-13
-4.33969e-12
-2.07962e-13
-4.33316e-12
1.7326e-13
-4.04982e-12
5.83183e-13
-3.42701e-12
9.64745e-13
-2.43267e-12
1.15652e-12
-1.14553e-12
1.14371e-12
3.32771e-13
8.10758e-13
1.87044e-12
2.67777e-13
2.32957e-12
1.73856e-12
-8.1013e-14
1.36917e-12
-2.13385e-13
2.24357e-12
-4.69828e-13
3.46252e-12
-7.47918e-13
4.31321e-12
-9.57899e-13
4.47259e-12
-1.04822e-12
4.01265e-12
-1.00643e-12
3.13891e-12
-7.77586e-13
1.92518e-12
-4.60866e-13
8.29684e-13
1.9197e-14
-3.34385e-13
5.66075e-13
-1.39031e-12
1.17255e-12
-2.35747e-12
1.73623e-12
-3.09717e-12
2.23031e-12
-3.63522e-12
2.4741e-12
-3.97091e-12
2.7062e-12
-4.5718e-12
2.99128e-12
-4.61825e-12
3.18214e-12
-4.24069e-12
3.26616e-12
-3.51103e-12
3.23668e-12
-2.40319e-12
3.0498e-12
-9.58656e-13
2.43368e-12
9.48888e-13
1.38816e-12
2.91596e-12
4.23274e-13
3.29445e-12
2.16183e-12
-2.56802e-14
1.39485e-12
-2.26284e-14
2.24051e-12
-6.52159e-14
3.50511e-12
-4.48834e-14
4.29288e-12
1.33914e-13
4.29379e-12
5.18137e-13
3.62842e-12
1.12121e-12
2.53584e-12
1.77924e-12
1.26714e-12
2.62728e-12
-1.83591e-14
3.55659e-12
-1.2637e-12
4.66805e-12
-2.50179e-12
5.78321e-12
-3.47263e-12
6.79927e-12
-4.11324e-12
7.67014e-12
-4.5061e-12
8.33777e-12
-4.63854e-12
8.35602e-12
-4.59006e-12
8.5512e-12
-4.81343e-12
8.37156e-12
-4.06105e-12
7.85699e-12
-2.99647e-12
7.08137e-12
-1.62758e-12
6.03754e-12
8.51667e-14
4.32209e-12
2.66434e-12
2.45014e-12
4.7879e-12
7.41051e-13
5.00354e-12
2.90288e-12
4.78413e-14
1.34701e-12
2.66193e-13
2.02216e-12
5.68975e-13
3.20232e-12
1.07674e-12
3.78511e-12
1.80913e-12
3.56139e-12
2.84372e-12
2.59383e-12
4.03879e-12
1.34075e-12
5.43447e-12
-1.2854e-13
6.94955e-12
-1.53345e-12
8.71885e-12
-3.03301e-12
1.05222e-11
-4.30517e-12
1.23208e-11
-5.27124e-12
1.40413e-11
-5.83378e-12
1.5444e-11
-5.90878e-12
1.63257e-11
-5.52022e-12
1.65185e-11
-4.78283e-12
1.63428e-11
-4.63782e-12
1.56778e-11
-3.39605e-12
1.4483e-11
-1.80162e-12
1.26976e-11
1.57762e-13
1.01588e-11
2.62397e-12
6.99778e-12
5.82537e-12
3.84038e-12
7.94531e-12
1.15501e-12
7.6889e-12
4.05789e-12
1.60243e-13
1.18676e-12
6.77534e-13
1.50487e-12
1.4631e-12
2.41676e-12
2.61316e-12
2.63505e-12
4.14164e-12
2.03291e-12
5.90234e-12
8.33127e-13
8.02543e-12
-7.82343e-13
1.03901e-11
-2.49321e-12
1.30706e-11
-4.21394e-12
1.58105e-11
-5.77292e-12
1.85552e-11
-7.04986e-12
2.12244e-11
-7.94047e-12
2.36993e-11
-8.30866e-12
2.58437e-11
-8.05321e-12
2.7461e-11
-7.13753e-12
2.82425e-11
-5.56442e-12
2.77121e-11
-4.10741e-12
2.6324e-11
-2.00798e-12
2.40192e-11
5.0318e-13
2.06612e-11
3.51581e-12
1.60093e-11
7.27586e-12
1.11664e-11
1.06683e-11
6.26371e-12
1.2848e-11
1.99919e-12
1.19534e-11
6.05709e-12
3.05875e-13
8.80891e-13
1.2291e-12
5.81654e-13
2.6647e-12
9.81161e-13
4.61169e-12
6.88066e-13
7.10174e-12
-4.57144e-13
1.00557e-11
-2.12081e-12
1.34615e-11
-4.18819e-12
1.71962e-11
-6.22784e-12
2.11427e-11
-8.16053e-12
2.51768e-11
-9.80699e-12
2.91616e-11
-1.10346e-11
3.30021e-11
-1.1781e-11
3.65346e-11
-1.18412e-11
3.95709e-11
-1.10896e-11
4.18892e-11
-9.45577e-12
4.33028e-11
-6.97808e-12
4.31313e-11
-3.93588e-12
4.17922e-11
-6.68923e-13
3.78862e-11
4.40919e-12
3.20253e-11
9.37666e-12
2.53579e-11
1.39432e-11
1.81059e-11
1.79204e-11
1.02949e-11
2.0659e-11
3.59114e-12
1.86572e-11
9.64823e-12
5.00341e-13
3.80555e-13
1.95278e-12
-8.7078e-13
4.20653e-12
-1.27258e-12
7.2018e-12
-2.3072e-12
1.08898e-11
-4.14518e-12
1.52939e-11
-6.52488e-12
2.02096e-11
-9.10383e-12
2.56036e-11
-1.16219e-11
3.13164e-11
-1.38733e-11
3.71596e-11
-1.56503e-11
4.28933e-11
-1.67683e-11
4.82362e-11
-1.71239e-11
5.30318e-11
-1.66368e-11
5.73264e-11
-1.53841e-11
6.06541e-11
-1.27835e-11
6.26955e-11
-9.01944e-12
6.29957e-11
-4.23615e-12
6.09611e-11
1.36572e-12
5.64615e-11
8.90873e-12
4.93034e-11
1.65348e-11
3.96587e-11
2.35879e-11
2.84722e-11
2.91069e-11
1.68316e-11
3.22995e-11
6.27959e-12
2.92092e-11
1.59278e-11
7.38905e-13
-3.58343e-13
2.82337e-12
-2.95523e-12
6.05351e-12
-4.50272e-12
1.03006e-11
-6.55426e-12
1.55053e-11
-9.34987e-12
2.15236e-11
-1.25432e-11
2.82357e-11
-1.58159e-11
3.55228e-11
-1.8909e-11
4.32396e-11
-2.159e-11
5.1219e-11
-2.36296e-11
5.92562e-11
-2.48056e-11
6.70141e-11
-2.48819e-11
7.40285e-11
-2.36512e-11
7.97833e-11
-2.11389e-11
8.45393e-11
-1.75395e-11
8.75622e-11
-1.20424e-11
8.85019e-11
-5.17585e-12
8.65119e-11
3.35572e-12
8.15856e-11
1.3835e-11
7.26615e-11
2.54589e-11
6.02771e-11
3.59723e-11
4.45648e-11
4.48191e-11
2.72317e-11
4.96327e-11
1.0515e-11
4.59259e-11
2.64428e-11
1.0355e-12
-1.39383e-12
3.86296e-12
-5.78269e-12
8.21249e-12
-8.85223e-12
1.39431e-11
-1.22849e-11
2.08721e-11
-1.62788e-11
2.88369e-11
-2.0508e-11
3.76817e-11
-2.46607e-11
4.72449e-11
-2.84722e-11
5.73597e-11
-3.17049e-11
6.78368e-11
-3.41067e-11
7.84512e-11
-3.542e-11
8.89435e-11
-3.53741e-11
9.9e-11
-3.37077e-11
1.0796e-10
-3.00994e-11
1.14783e-10
-2.43624e-11
1.19847e-10
-1.7106e-11
1.22238e-10
-7.56659e-12
1.21751e-10
3.84235e-12
1.1677e-10
1.88157e-11
1.07047e-10
3.5182e-11
9.16627e-11
5.13568e-11
7.20291e-11
6.44528e-11
4.6231e-11
7.54309e-11
1.6846e-11
7.53108e-11
4.32889e-11
1.35583e-12
-2.74965e-12
5.0106e-12
-9.43745e-12
1.0641e-11
-1.44826e-11
1.80073e-11
-1.96512e-11
2.68862e-11
-2.51578e-11
3.70865e-11
-3.07083e-11
4.841e-11
-3.59842e-11
6.06883e-11
-4.07504e-11
7.37117e-11
-4.47282e-11
8.72555e-11
-4.76505e-11
1.01061e-10
-4.92251e-11
1.14837e-10
-4.91507e-11
1.28229e-10
-4.70999e-11
1.40866e-10
-4.27359e-11
1.52253e-10
-3.57495e-11
1.60794e-10
-2.56474e-11
1.66277e-10
-1.30497e-11
1.68447e-10
1.67267e-12
1.65424e-10
2.18386e-11
1.56458e-10
4.41482e-11
1.39937e-10
6.78776e-11
1.13845e-10
9.05447e-11
7.62558e-11
1.1302e-10
2.35319e-11
1.28035e-10
6.68208e-11
1.71046e-12
-4.4601e-12
6.27464e-12
-1.40016e-11
1.32843e-11
-2.14922e-11
2.24253e-11
-2.87921e-11
3.3421e-11
-3.61535e-11
4.60774e-11
-4.33646e-11
6.02072e-11
-5.01139e-11
7.5595e-11
-5.61382e-11
9.20512e-11
-6.11845e-11
1.09344e-10
-6.49438e-11
1.2721e-10
-6.70906e-11
1.45323e-10
-6.72634e-11
1.63293e-10
-6.50698e-11
1.80644e-10
-6.00868e-11
1.96765e-10
-5.18708e-11
2.11171e-10
-4.00541e-11
2.22584e-10
-2.4462e-11
2.29806e-10
-5.54974e-12
2.32839e-10
1.88058e-11
2.28045e-10
4.89423e-11
2.13827e-10
8.20949e-11
1.85329e-10
1.19043e-10
1.38357e-10
1.59992e-10
7.30992e-11
1.93293e-10
1.3992e-10
1.68428e-12
-6.14437e-12
6.20287e-12
-1.85202e-11
1.3124e-11
-2.84134e-11
2.20524e-11
-3.77205e-11
3.27369e-11
-4.68379e-11
4.49876e-11
-5.56154e-11
5.86849e-11
-6.38112e-11
7.38074e-11
-7.12606e-11
9.03196e-11
-7.76966e-11
1.08239e-10
-8.28628e-11
1.27608e-10
-8.64599e-11
1.48486e-10
-8.81412e-11
1.70938e-10
-8.75222e-11
1.95035e-10
-8.41835e-11
2.20866e-10
-7.77014e-11
2.48602e-10
-6.77907e-11
2.7827e-10
-5.413e-11
3.0943e-10
-3.67093e-11
3.43392e-10
-1.51563e-11
3.81987e-10
1.03468e-11
4.25438e-10
3.86441e-11
4.78124e-10
6.63574e-11
5.44816e-10
9.33005e-11
6.27999e-10
1.10109e-10
5.28371e-11
7.15082e-10
1.84643e-12
-7.99079e-12
6.78966e-12
-2.34634e-11
1.43597e-11
-3.59834e-11
2.41532e-11
-4.7514e-11
3.58985e-11
-5.85831e-11
4.9416e-11
-6.91329e-11
6.46266e-11
-7.90216e-11
8.14647e-11
-8.80987e-11
9.99387e-11
-9.61706e-11
1.20093e-10
-1.03017e-10
1.42009e-10
-1.08375e-10
1.65802e-10
-1.11935e-10
1.91629e-10
-1.13349e-10
2.1969e-10
-1.12245e-10
2.50252e-10
-1.08263e-10
2.83582e-10
-1.01121e-10
3.20094e-10
-9.06417e-11
3.60216e-10
-7.68311e-11
4.04966e-10
-5.99063e-11
4.55873e-10
-4.05602e-11
5.14884e-10
-2.03676e-11
5.83483e-10
-2.24091e-12
6.64944e-10
1.18394e-11
7.59928e-10
1.51252e-11
-5.9551e-12
8.1872e-10
1.977e-12
-9.96778e-12
7.28151e-12
-2.87679e-11
1.54126e-11
-4.41144e-11
2.59546e-11
-5.8056e-11
3.86298e-11
-7.12583e-11
5.32682e-11
-8.37713e-11
6.97758e-11
-9.55291e-11
8.8106e-11
-1.06429e-10
1.0827e-10
-1.16334e-10
1.30322e-10
-1.2507e-10
1.54361e-10
-1.32415e-10
1.80533e-10
-1.38106e-10
2.09029e-10
-1.41846e-10
2.40106e-10
-1.43321e-10
2.74079e-10
-1.42236e-10
3.11324e-10
-1.38366e-10
3.52305e-10
-1.31623e-10
3.97579e-10
-1.22105e-10
4.47833e-10
-1.1016e-10
5.03814e-10
-9.6542e-11
5.65941e-10
-8.24942e-11
6.33174e-10
-6.94738e-11
7.03257e-10
-5.82431e-11
7.66398e-10
-4.80165e-11
-3.20593e-11
7.92502e-10
2.07979e-12
-1.20476e-11
7.67305e-12
-3.43611e-11
1.62638e-11
-5.27051e-11
2.74297e-11
-6.9222e-11
4.08905e-11
-8.4719e-11
5.64722e-11
-9.93529e-11
7.40737e-11
-1.13131e-10
9.36517e-11
-1.26007e-10
1.15212e-10
-1.37894e-10
1.38806e-10
-1.48663e-10
1.64529e-10
-1.58138e-10
1.92525e-10
-1.66101e-10
2.22982e-10
-1.72303e-10
2.56144e-10
-1.76482e-10
2.92302e-10
-1.78394e-10
3.3179e-10
-1.77855e-10
3.74957e-10
-1.7479e-10
4.22131e-10
-1.69278e-10
4.7354e-10
-1.61569e-10
5.29084e-10
-1.52087e-10
5.87873e-10
-1.41283e-10
6.47518e-10
-1.29119e-10
7.0323e-10
-1.13955e-10
7.46033e-10
-9.08188e-11
-4.79824e-11
7.61956e-10
2.15476e-12
-1.42023e-11
7.96448e-12
-4.01708e-11
1.69112e-11
-6.16518e-11
2.85719e-11
-8.08827e-11
4.2663e-11
-9.88101e-11
5.90043e-11
-1.15694e-10
7.74871e-11
-1.31613e-10
9.80582e-11
-1.46578e-10
1.20711e-10
-1.60547e-10
1.45481e-10
-1.73433e-10
1.72444e-10
-1.85101e-10
2.01715e-10
-1.95373e-10
2.33449e-10
-2.04037e-10
2.67834e-10
-2.10868e-10
3.05085e-10
-2.15645e-10
3.45417e-10
-2.18186e-10
3.88998e-10
-2.18371e-10
4.35876e-10
-2.16157e-10
4.85862e-10
-2.11555e-10
5.38297e-10
-2.04522e-10
5.91714e-10
-1.947e-10
6.43437e-10
-1.80842e-10
6.89253e-10
-1.59771e-10
7.23491e-10
-1.25057e-10
-6.52845e-11
7.40793e-10
2.2021e-12
-1.64044e-11
8.15821e-12
-4.61269e-11
1.73593e-11
-7.08529e-11
2.93864e-11
-9.29097e-11
4.39532e-11
-1.13377e-10
6.08723e-11
-1.32613e-10
8.00241e-11
-1.50765e-10
1.01341e-10
-1.67894e-10
1.24796e-10
-1.84003e-10
1.50402e-10
-1.99039e-10
1.78203e-10
-2.12902e-10
2.08271e-10
-2.25441e-10
2.40706e-10
-2.36472e-10
2.75622e-10
-2.45783e-10
3.13134e-10
-2.53157e-10
3.53325e-10
-2.58378e-10
3.96194e-10
-2.6124e-10
4.41576e-10
-2.61538e-10
4.89024e-10
-2.59003e-10
5.3766e-10
-2.53157e-10
5.85989e-10
-2.4303e-10
6.31793e-10
-2.26646e-10
6.72306e-10
-2.00284e-10
7.04924e-10
-1.57675e-10
-8.94041e-11
7.29044e-10
2.22296e-12
-1.86273e-11
8.25903e-12
-5.2163e-11
1.76173e-11
-8.02111e-11
2.98871e-11
-1.05179e-10
4.47811e-11
-1.28271e-10
6.21044e-11
-1.49936e-10
8.17251e-11
-1.70386e-10
1.03558e-10
-1.89728e-10
1.27557e-10
-2.08001e-10
1.53703e-10
-2.25186e-10
1.82004e-10
-2.41203e-10
2.12488e-10
-2.55924e-10
2.4519e-10
-2.69174e-10
2.80152e-10
-2.80745e-10
3.17394e-10
-2.90399e-10
3.56889e-10
-2.97872e-10
3.98514e-10
-3.02866e-10
4.41987e-10
-3.05011e-10
4.86781e-10
-3.03798e-10
5.32053e-10
-2.98429e-10
5.76597e-10
-2.87573e-10
6.18939e-10
-2.68988e-10
6.57713e-10
-2.39058e-10
6.92462e-10
-1.92423e-10
-1.2204e-10
7.25098e-10
2.21941e-12
-2.08467e-11
8.27426e-12
-5.82178e-11
1.76993e-11
-8.96362e-11
3.00966e-11
-1.17577e-10
4.51797e-11
-1.43354e-10
6.27472e-11
-1.67504e-10
8.26555e-11
-1.90294e-10
1.04803e-10
-2.11875e-10
1.2912e-10
-2.32318e-10
1.55561e-10
-2.51627e-10
1.84099e-10
-2.69741e-10
2.14714e-10
-2.8654e-10
2.47393e-10
-3.01853e-10
2.82109e-10
-3.15461e-10
3.18812e-10
-3.27102e-10
3.57403e-10
-3.36463e-10
3.97695e-10
-3.43158e-10
4.39378e-10
-3.46694e-10
4.81973e-10
-3.46393e-10
5.24819e-10
-3.41275e-10
5.6712e-10
-3.29874e-10
6.08127e-10
-3.09995e-10
6.47547e-10
-2.78478e-10
6.8622e-10
-2.31096e-10
-1.62868e-10
7.27049e-10
2.19425e-12
-2.3041e-11
8.21321e-12
-6.42368e-11
1.76239e-11
-9.90468e-11
3.00445e-11
-1.29997e-10
4.51924e-11
-1.58502e-10
6.28618e-11
-1.85173e-10
8.28991e-11
-2.10331e-10
1.05188e-10
-2.34163e-10
1.29638e-10
-2.56768e-10
1.56181e-10
-2.78169e-10
1.84757e-10
-2.98317e-10
2.15312e-10
-3.17095e-10
2.47791e-10
-3.34331e-10
2.82123e-10
-3.49793e-10
3.18214e-10
-3.63194e-10
3.55929e-10
-3.74178e-10
3.95072e-10
-3.82301e-10
4.35368e-10
-3.8699e-10
4.76458e-10
-3.87482e-10
5.17919e-10
-3.82737e-10
5.59362e-10
-3.71317e-10
6.00624e-10
-3.51257e-10
6.42125e-10
-3.19979e-10
6.8537e-10
-2.74342e-10
-2.11006e-10
7.33508e-10
2.15063e-12
-2.51916e-11
8.0865e-12
-7.01726e-11
1.7412e-11
-1.08372e-10
2.9765e-11
-1.4235e-10
4.48696e-11
-1.73606e-10
6.25182e-11
-2.02822e-10
8.25499e-11
-2.30363e-10
1.04836e-10
-2.5645e-10
1.29272e-10
-2.81204e-10
1.55768e-10
-3.04665e-10
1.84242e-10
-3.26791e-10
2.14617e-10
-3.4747e-10
2.46808e-10
-3.66522e-10
2.80721e-10
-3.83707e-10
3.16246e-10
-3.98718e-10
3.53243e-10
-4.11175e-10
3.91544e-10
-4.20602e-10
4.30949e-10
-4.26394e-10
4.7124e-10
-4.27773e-10
5.12233e-10
-4.2373e-10
5.53878e-10
-4.12961e-10
5.96432e-10
-3.93811e-10
6.40735e-10
-3.64282e-10
6.88544e-10
-3.22151e-10
-2.65309e-10
7.42847e-10
2.09194e-12
-2.72835e-11
7.90548e-12
-7.59862e-11
1.70862e-11
-1.17553e-10
2.92949e-11
-1.54559e-10
4.42647e-11
-1.88576e-10
6.17896e-11
-2.20347e-10
8.17042e-11
-2.50278e-10
1.03872e-10
-2.78618e-10
1.28177e-10
-3.05509e-10
1.54516e-10
-3.31004e-10
1.82794e-10
-3.55068e-10
2.12916e-10
-3.77592e-10
2.44788e-10
-3.98394e-10
2.78308e-10
-4.17227e-10
3.13367e-10
-4.33777e-10
3.49848e-10
-4.47656e-10
3.87629e-10
-4.58384e-10
4.26599e-10
-4.65364e-10
4.66681e-10
-4.67855e-10
5.07892e-10
-4.64941e-10
5.50432e-10
-4.55502e-10
5.9483e-10
-4.3821e-10
6.42131e-10
-4.11582e-10
6.94101e-10
-3.74122e-10
-3.24595e-10
7.53387e-10
2.02152e-12
-2.93051e-11
7.68158e-12
-8.16462e-11
1.66693e-11
-1.26541e-10
2.86704e-11
-1.6656e-10
4.34305e-11
-2.03336e-10
6.07473e-11
-2.37663e-10
8.04547e-11
-2.69985e-10
1.02412e-10
-3.00575e-10
1.26497e-10
-3.29594e-10
1.52598e-10
-3.57105e-10
1.80613e-10
-3.83084e-10
2.10444e-10
-4.07423e-10
2.41993e-10
-4.29943e-10
2.75165e-10
-4.50399e-10
3.09868e-10
-4.6848e-10
3.46017e-10
-4.83806e-10
3.83548e-10
-4.95915e-10
4.22434e-10
-5.0425e-10
4.6272e-10
-5.08141e-10
5.04574e-10
-5.06795e-10
5.48366e-10
-4.99294e-10
5.94773e-10
-4.84617e-10
6.44902e-10
-4.61711e-10
7.00405e-10
-4.29625e-10
-3.87728e-10
7.63539e-10
1.94274e-12
-3.12478e-11
7.42562e-12
-8.71291e-11
1.61825e-11
-1.35298e-10
2.79262e-11
-1.78304e-10
4.24163e-11
-2.17826e-10
5.94574e-11
-2.54705e-10
7.88857e-11
-2.89413e-10
1.0056e-10
-3.22249e-10
1.24354e-10
-3.53388e-10
1.50157e-10
-3.82908e-10
1.77864e-10
-4.10791e-10
2.07378e-10
-4.36937e-10
2.38609e-10
-4.61174e-10
2.71475e-10
-4.83265e-10
3.05908e-10
-5.02913e-10
3.41862e-10
-5.19759e-10
3.79326e-10
-5.33379e-10
4.18347e-10
-5.43271e-10
4.59063e-10
-5.48857e-10
5.01746e-10
-5.49478e-10
5.46865e-10
-5.44413e-10
5.95157e-10
-5.32909e-10
6.47703e-10
-5.14257e-10
7.05984e-10
-4.87906e-10
-4.53626e-10
7.71882e-10
1.85823e-12
-3.3106e-11
7.14728e-12
-9.24182e-11
1.56454e-11
-1.43796e-10
2.70931e-11
-1.89751e-10
4.12663e-11
-2.31999e-10
5.79786e-11
-2.71417e-10
7.70708e-11
-3.08505e-10
9.84038e-11
-3.43582e-10
1.21854e-10
-3.76838e-10
1.4731e-10
-4.08364e-10
1.74671e-10
-4.38152e-10
2.03847e-10
-4.66113e-10
2.34759e-10
-4.92085e-10
2.67342e-10
-5.15848e-10
3.01554e-10
-5.37125e-10
3.37386e-10
-5.5559e-10
3.74872e-10
-5.70865e-10
4.14118e-10
-5.82517e-10
4.55326e-10
-5.90064e-10
4.98829e-10
-5.92981e-10
5.45139e-10
-5.90723e-10
5.94995e-10
-5.82764e-10
6.494e-10
-5.68662e-10
7.09644e-10
-5.4815e-10
-5.21261e-10
7.77279e-10
1.77076e-12
-3.48768e-11
6.85501e-12
-9.75024e-11
1.50743e-11
-1.52015e-10
2.61978e-11
-2.00875e-10
4.00184e-11
-2.4582e-10
5.63606e-11
-2.87759e-10
7.50719e-11
-3.27217e-10
9.60176e-11
-3.64527e-10
1.19078e-10
-3.99899e-10
1.44146e-10
-4.33432e-10
1.71127e-10
-4.65133e-10
1.9994e-10
-4.94925e-10
2.30518e-10
-5.22663e-10
2.62816e-10
-5.48145e-10
2.96815e-10
-5.71124e-10
3.32534e-10
-5.9131e-10
3.70048e-10
-6.08378e-10
4.09499e-10
-6.21968e-10
4.51127e-10
-6.31692e-10
4.95295e-10
-6.37149e-10
5.42518e-10
-6.37947e-10
5.93496e-10
-6.33742e-10
6.49129e-10
-6.24295e-10
7.10518e-10
-6.09539e-10
-5.89673e-10
7.78929e-10
1.6831e-12
-3.65599e-11
6.55581e-12
-1.02375e-10
1.44833e-11
-1.59942e-10
2.52625e-11
-2.11654e-10
3.87041e-11
-2.59261e-10
5.46443e-11
-3.03699e-10
7.29388e-11
-3.45511e-10
9.34593e-11
-3.85048e-10
1.16091e-10
-4.22531e-10
1.40734e-10
-4.58074e-10
1.673e-10
-4.91699e-10
1.95716e-10
-5.23342e-10
2.25931e-10
-5.52878e-10
2.57914e-10
-5.80128e-10
2.91666e-10
-6.04876e-10
3.27231e-10
-6.26875e-10
3.64706e-10
-6.45853e-10
4.04257e-10
-6.6152e-10
4.46141e-10
-6.73576e-10
4.90722e-10
-6.8173e-10
5.38492e-10
-6.85718e-10
5.9009e-10
-6.8534e-10
6.46302e-10
-6.80507e-10
7.08053e-10
-6.7129e-10
-6.57986e-10
7.76367e-10
1.59469e-12
-3.81547e-11
6.25472e-12
-1.07035e-10
1.38833e-11
-1.67571e-10
2.43049e-11
-2.22076e-10
3.73483e-11
-2.72305e-10
5.28621e-11
-3.19213e-10
7.0711e-11
-3.6336e-10
9.07737e-11
-4.0511e-10
1.12942e-10
-4.44699e-10
1.37122e-10
-4.82254e-10
1.63233e-10
-5.1781e-10
1.91213e-10
-5.51322e-10
2.21019e-10
-5.82684e-10
2.52634e-10
-6.11743e-10
2.86075e-10
-6.38317e-10
3.21399e-10
-6.622e-10
3.58718e-10
-6.83172e-10
3.98206e-10
-7.01008e-10
4.4012e-10
-7.15489e-10
4.84806e-10
-7.26416e-10
5.32717e-10
-7.33629e-10
5.84418e-10
-7.37041e-10
6.4058e-10
-7.36669e-10
7.01968e-10
-7.32678e-10
-7.25421e-10
7.69402e-10
1.50812e-12
-3.96628e-11
5.95604e-12
-1.11483e-10
1.32828e-11
-1.74898e-10
2.33386e-11
-2.32131e-10
3.59703e-11
-2.84937e-10
5.10388e-11
-3.34281e-10
6.84182e-11
-3.80739e-10
8.79946e-11
-4.24687e-10
1.09667e-10
-4.66371e-10
1.33346e-10
-5.05933e-10
1.5896e-10
-5.43424e-10
1.86453e-10
-5.78815e-10
2.15792e-10
-6.12022e-10
2.46968e-10
-6.4292e-10
2.80008e-10
-6.71357e-10
3.14976e-10
-6.97168e-10
3.51987e-10
-7.20182e-10
3.91214e-10
-7.40235e-10
4.32898e-10
-7.57174e-10
4.77358e-10
-7.70876e-10
5.24996e-10
-7.81267e-10
5.76297e-10
-7.88342e-10
6.31824e-10
-7.92196e-10
6.92198e-10
-7.93052e-10
-7.9129e-10
7.58067e-10
1.4236e-12
-4.10864e-11
5.66267e-12
-1.15722e-10
1.26878e-11
-1.81923e-10
2.23738e-11
-2.41817e-10
3.45844e-11
-2.97147e-10
4.91929e-11
-3.4889e-10
6.60825e-11
-3.97629e-10
8.51467e-11
-4.43751e-10
1.0629e-10
-4.87515e-10
1.29431e-10
-5.29074e-10
1.54502e-10
-5.68494e-10
1.81453e-10
-6.05766e-10
2.10256e-10
-6.40825e-10
2.4091e-10
-6.73573e-10
2.73442e-10
-7.03889e-10
3.07919e-10
-7.31645e-10
3.44452e-10
-7.56715e-10
3.83202e-10
-7.78985e-10
4.24388e-10
-7.9836e-10
4.68291e-10
-8.14779e-10
5.15257e-10
-8.28233e-10
5.65692e-10
-8.38778e-10
6.20057e-10
-8.46561e-10
6.78846e-10
-8.51841e-10
-8.55005e-10
7.42561e-10
1.34279e-12
-4.24293e-11
5.37687e-12
-1.19756e-10
1.21026e-11
-1.88649e-10
2.14173e-11
-2.51132e-10
3.32007e-11
-3.0893e-10
4.73375e-11
-3.63026e-10
6.37197e-11
-4.14011e-10
8.22478e-11
-4.62279e-10
1.02832e-10
-5.08099e-10
1.25396e-10
-5.51638e-10
1.49875e-10
-5.92974e-10
1.76225e-10
-6.32115e-10
2.04419e-10
-6.69019e-10
2.34457e-10
-7.03611e-10
2.66367e-10
-7.35799e-10
3.00211e-10
-7.65489e-10
3.3609e-10
-7.92594e-10
3.74146e-10
-8.17041e-10
4.14569e-10
-8.38783e-10
4.576e-10
-8.5781e-10
5.03527e-10
-8.74159e-10
5.52679e-10
-8.8793e-10
6.05422e-10
-8.99304e-10
6.62138e-10
-9.08557e-10
-9.1607e-10
7.23204e-10
1.26527e-12
-4.36946e-11
5.09977e-12
-1.23591e-10
1.15301e-11
-1.95079e-10
2.04741e-11
-2.60076e-10
3.18263e-11
-3.20283e-10
4.5482e-11
-3.76682e-10
6.13414e-11
-4.2987e-10
7.93112e-11
-4.80249e-10
9.93067e-11
-5.28094e-10
1.21254e-10
-5.73585e-10
1.45093e-10
-6.16813e-10
1.7078e-10
-6.57802e-10
1.98289e-10
-6.96528e-10
2.27618e-10
-7.3294e-10
2.58791e-10
-7.66971e-10
2.91859e-10
-7.98558e-10
3.2691e-10
-8.27644e-10
3.64064e-10
-8.54195e-10
4.03479e-10
-8.78198e-10
4.45351e-10
-8.99682e-10
4.89911e-10
-9.18718e-10
5.37418e-10
-9.35437e-10
5.8815e-10
-9.50037e-10
6.4239e-10
-9.62797e-10
-9.74085e-10
7.00405e-10
1.19121e-12
-4.48858e-11
4.83203e-12
-1.27232e-10
1.09719e-11
-2.01219e-10
1.95472e-11
-2.68651e-10
3.04657e-11
-3.31201e-10
4.36327e-11
-3.89849e-10
5.89556e-11
-4.45193e-10
7.63466e-11
-4.9764e-10
9.57249e-11
-5.47473e-10
1.17019e-10
-5.94879e-10
1.4017e-10
-6.39964e-10
1.65134e-10
-6.82766e-10
1.91884e-10
-7.23278e-10
2.20412e-10
-7.61468e-10
2.50734e-10
-7.97294e-10
2.82892e-10
-8.30716e-10
3.16953e-10
-8.61705e-10
3.53013e-10
-8.90255e-10
3.91198e-10
-9.16383e-10
4.31659e-10
-9.40143e-10
4.74573e-10
-9.61632e-10
5.20131e-10
-9.80995e-10
5.68534e-10
-9.9844e-10
6.19977e-10
-1.01424e-09
-1.02874e-09
6.74631e-10
1.12063e-12
-4.60065e-11
4.57391e-12
-1.30685e-10
1.04288e-11
-2.07074e-10
1.86381e-11
-2.76861e-10
2.91219e-11
-3.41685e-10
4.17942e-11
-4.02521e-10
5.65688e-11
-4.59968e-10
7.33623e-11
-5.14433e-10
9.20969e-11
-5.66207e-10
1.12703e-10
-6.15485e-10
1.35121e-10
-6.62382e-10
1.59305e-10
-7.0695e-10
1.85224e-10
-7.49197e-10
2.12865e-10
-7.89109e-10
2.42234e-10
-8.26662e-10
2.73356e-10
-8.61839e-10
3.06282e-10
-8.94631e-10
3.41081e-10
-9.25054e-10
3.77844e-10
-9.53146e-10
4.16681e-10
-9.78981e-10
4.57717e-10
-1.00267e-09
5.01083e-10
-1.02436e-09
5.4691e-10
-1.04427e-09
5.95314e-10
-1.06264e-09
-1.07981e-09
6.46384e-10
1.05344e-12
-4.706e-11
4.3253e-12
-1.33957e-10
9.90093e-12
-2.1265e-10
1.77479e-11
-2.84708e-10
2.7797e-11
-3.51734e-10
3.99699e-11
-4.14694e-10
5.4186e-11
-4.74184e-10
7.03656e-11
-5.30613e-10
8.84331e-11
-5.84275e-10
1.08319e-10
-6.35371e-10
1.29963e-10
-6.84026e-10
1.53315e-10
-7.30302e-10
1.7834e-10
-7.74222e-10
2.05016e-10
-8.15785e-10
2.33338e-10
-8.54984e-10
2.63318e-10
-8.91818e-10
2.94982e-10
-9.26296e-10
3.28377e-10
-9.58448e-10
3.6356e-10
-9.88329e-10
4.00601e-10
-1.01602e-09
4.39578e-10
-1.04164e-09
4.80567e-10
-1.06535e-09
5.23637e-10
-1.08734e-09
5.68837e-10
-1.10784e-09
-1.12716e-09
6.16184e-10
9.8948e-13
-4.80496e-11
4.08594e-12
-1.37054e-10
9.38829e-12
-2.17952e-10
1.68769e-11
-2.92196e-10
2.64922e-11
-3.61349e-10
3.81626e-11
-4.26365e-10
5.18122e-11
-4.87833e-10
6.73642e-11
-5.46164e-10
8.4744e-11
-6.01654e-10
1.03882e-10
-6.54509e-10
1.24715e-10
-7.04859e-10
1.47191e-10
-7.52777e-10
1.71266e-10
-7.98297e-10
1.9691e-10
-8.41429e-10
2.24107e-10
-8.82181e-10
2.52852e-10
-9.20562e-10
2.83152e-10
-9.56596e-10
3.15027e-10
-9.90323e-10
3.48505e-10
-1.02181e-09
3.83619e-10
-1.05114e-09
4.20403e-10
-1.07843e-09
4.58887e-10
-1.10383e-09
4.99083e-10
-1.12753e-09
5.40984e-10
-1.14974e-09
-1.17072e-09
5.84547e-10
9.2857e-13
-4.89782e-11
3.85547e-12
-1.39981e-10
8.8906e-12
-2.22987e-10
1.60256e-11
-2.99331e-10
2.5209e-11
-3.70533e-10
3.63754e-11
-4.37531e-10
4.94526e-11
-5.0091e-10
6.43661e-11
-5.61078e-10
8.10417e-11
-6.1833e-10
9.94087e-11
-6.72876e-10
1.19402e-10
-7.24852e-10
1.40962e-10
-7.74338e-10
1.64041e-10
-8.21376e-10
1.886e-10
-8.65988e-10
2.14607e-10
-9.08189e-10
2.42044e-10
-9.47999e-10
2.70899e-10
-9.85451e-10
3.01167e-10
-1.02059e-09
3.32849e-10
-1.05349e-09
3.65944e-10
-1.08423e-09
4.00449e-10
-1.11293e-09
4.36349e-10
-1.13973e-09
4.73615e-10
-1.1648e-09
5.12186e-10
-1.18832e-09
-1.2105e-09
5.51971e-10
8.70548e-13
-4.98489e-11
3.63357e-12
-1.42744e-10
8.40767e-12
-2.27761e-10
1.51941e-11
-3.06118e-10
2.39489e-11
-3.79288e-10
3.46114e-11
-4.48194e-10
4.71129e-11
-5.13412e-10
6.13801e-11
-5.75345e-10
7.73392e-11
-6.34289e-10
9.49177e-11
-6.90454e-10
1.14047e-10
-7.43981e-10
1.34663e-10
-7.94954e-10
1.56711e-10
-8.43423e-10
1.8014e-10
-8.89417e-10
2.0491e-10
-9.32959e-10
2.30986e-10
-9.74075e-10
2.58338e-10
-1.0128e-09
2.86939e-10
-1.04919e-09
3.16765e-10
-1.08331e-09
3.47786e-10
-1.11525e-09
3.79965e-10
-1.14511e-09
4.13254e-10
-1.17302e-09
4.47582e-10
-1.19913e-09
4.82851e-10
-1.22359e-09
-1.24658e-09
5.18927e-10
8.15251e-13
-5.06642e-11
3.41997e-12
-1.45349e-10
7.93942e-12
-2.32281e-10
1.43832e-11
-3.12562e-10
2.27136e-11
-3.87618e-10
3.28744e-11
-4.58354e-10
4.47993e-11
-5.25337e-10
5.84163e-11
-5.88962e-10
7.3651e-11
-6.49524e-10
9.0429e-11
-7.07232e-10
1.08678e-10
-7.6223e-10
1.2833e-10
-8.14606e-10
1.4932e-10
-8.64414e-10
1.71592e-10
-9.11689e-10
1.95092e-10
-9.56459e-10
2.19771e-10
-9.98754e-10
2.45584e-10
-1.03861e-09
2.72483e-10
-1.07609e-09
3.00423e-10
-1.11125e-09
3.29349e-10
-1.14418e-09