/*--------------------------------*- C++ -*----------------------------------*\
  =========                 |
  \\      /  F ield         | OpenFOAM: The Open Source CFD Toolbox
   \\    /   O peration     | Website:  https://openfoam.org
    \\  /    A nd           | Version:  13
     \\/     M anipulation  |
\*---------------------------------------------------------------------------*/
FoamFile
{
    format      ascii;
    class       volVectorField;
    location    "15";
    object      U;
}
// * * * * * * * * * * * * * * * * * * * * * * * * * * * * * * * * * * * * * //

dimensions      [0 1 -1 0 0 0 0];

internalField   nonuniform List<vector> 
6440
(
(0.0196729 -0.0536306 0)
(0.0534044 -0.0853423 0)
(0.0855672 -0.0798339 -1.09489e-15)
(0.0946467 -0.0573596 1.0885e-15)
(0.0910851 -0.0346769 0)
(0.0757789 -0.0142463 -2.40729e-15)
(0.0654365 0.0130586 2.74989e-15)
(0.0727662 0.0457352 0)
(0.0896749 0.0663764 0)
(0.0930772 0.0693145 0)
(0.0802429 0.0517297 7.2137e-15)
(0.048704 0.0266401 -1.25668e-14)
(0.0157509 -0.000832404 6.00893e-15)
(-0.00551409 -0.0252733 0)
(-0.00315337 -0.0422057 -1.28341e-14)
(0.0176923 -0.0574711 1.2009e-14)
(0.0498731 -0.0661377 0)
(0.0915419 -0.0663945 0)
(0.13515 -0.0598977 0)
(0.175988 -0.048706 0)
(0.208341 -0.03532 -5.41168e-15)
(0.214893 -0.0144802 1.08749e-14)
(0.194114 0.0123074 -5.88879e-15)
(0.14617 0.0415116 -7.04876e-15)
(0.0637877 0.0499076 8.34497e-15)
(0.0302638 -0.115829 0)
(0.0640647 -0.130767 0)
(0.0752074 -0.103297 -1.79606e-15)
(0.0711263 -0.0327704 1.65223e-15)
(0.037561 0.0366363 0)
(0.00976441 0.0796913 -1.95103e-15)
(-0.00609213 0.105445 3.48162e-15)
(-0.0234291 0.120484 -1.57185e-15)
(-0.0591092 0.115346 0)
(-0.111908 0.0933069 0)
(-0.164174 0.0594914 0)
(-0.199608 0.0201987 -2.26609e-15)
(-0.212698 -0.0203347 2.3572e-15)
(-0.206378 -0.0588029 2.37006e-15)
(-0.182977 -0.0924 -2.38941e-15)
(-0.146098 -0.118798 0)
(-0.0949803 -0.131712 0)
(-0.0279706 -0.125654 0)
(0.0446216 -0.0972689 0)
(0.118724 -0.0502596 0)
(0.184479 0.00477578 -6.67964e-15)
(0.214643 0.0538491 5.93566e-15)
(0.205035 0.101339 0)
(0.164 0.138412 -6.51854e-15)
(0.0786991 0.130855 1.43249e-14)
(0.0162438 -0.0859473 0)
(-0.00753158 -0.031657 0)
(-0.063775 0.0446749 0)
(-0.113811 0.0887828 0)
(-0.148681 0.110395 0)
(-0.17293 0.117333 0)
(-0.200003 0.124391 8.69404e-16)
(-0.236416 0.1219 -8.15048e-16)
(-0.28044 0.106417 0)
(-0.322415 0.0823459 0)
(-0.351709 0.0503171 0)
(-0.364649 0.0116534 0)
(-0.363643 -0.0316869 0)
(-0.35292 -0.0768638 1.56499e-15)
(-0.334025 -0.121171 -4.60503e-15)
(-0.30773 -0.161084 3.07484e-15)
(-0.271494 -0.190484 0)
(-0.219743 -0.199602 0)
(-0.144269 -0.172521 0)
(-0.0354934 -0.0911824 0)
(0.102642 0.0382073 0)
(0.18148 0.118197 0)
(0.18381 0.170525 6.77841e-15)
(0.141623 0.207389 -6.66504e-15)
(0.0661014 0.171845 6.97355e-15)
(-0.0188565 0.00945356 0)
(-0.106081 0.0995941 0)
(-0.182953 0.143287 -4.14512e-16)
(-0.235203 0.147123 3.67291e-16)
(-0.270344 0.138091 0)
(-0.303045 0.142242 -6.91077e-16)
(-0.340745 0.141608 6.5128e-16)
(-0.382591 0.131588 0)
(-0.422474 0.11267 1.18297e-15)
(-0.453605 0.0865251 -1.1642e-15)
(-0.472706 0.0517024 1.17875e-15)
(-0.481355 0.00904559 -2.45838e-15)
(-0.482951 -0.0401685 1.25786e-15)
(-0.479828 -0.0940315 0)
(-0.472024 -0.149593 0)
(-0.458436 -0.202872 0)
(-0.435969 -0.247607 2.25093e-15)
(-0.398811 -0.27289 -3.90897e-19)
(-0.33704 -0.260589 -2.54273e-15)
(-0.234641 -0.184092 0)
(-0.0742144 -0.022886 0)
(0.101746 0.154399 1.01541e-14)
(0.139052 0.214174 -7.60632e-15)
(0.112488 0.239638 -6.38199e-15)
(0.0475678 0.162365 1.3999e-14)
(-0.0476069 0.129923 0)
(-0.159129 0.223652 0)
(-0.241568 0.22544 -3.24664e-16)
(-0.300859 0.195925 3.05901e-16)
(-0.349382 0.174103 0)
(-0.394214 0.171867 -5.74968e-16)
(-0.436551 0.173688 5.38459e-16)
(-0.477026 0.165431 0)
(-0.512347 0.145293 9.93087e-16)
(-0.539352 0.113431 -9.88544e-16)
(-0.558205 0.0707383 1.00864e-15)
(-0.570471 0.0182791 -2.10952e-15)
(-0.57768 -0.0417391 1.06106e-15)
(-0.580605 -0.106465 0)
(-0.579271 -0.17302 1.91372e-15)
(-0.573449 -0.237682 -1.84737e-15)
(-0.561727 -0.294836 1.81082e-15)
(-0.540532 -0.335451 -2.27552e-19)
(-0.499865 -0.344198 -1.8881e-15)
(-0.420829 -0.295698 0)
(-0.278412 -0.15721 2.73138e-15)
(-0.0646267 0.0673668 6.76478e-20)
(0.0866483 0.207497 -7.03024e-15)
(0.0935257 0.226876 -6.35973e-15)
(0.0430969 0.136195 7.52826e-15)
(-0.0613434 0.286368 0)
(-0.179929 0.345825 0)
(-0.272624 0.310058 -2.74802e-16)
(-0.345543 0.257864 2.657e-16)
(-0.404481 0.231038 0)
(-0.451796 0.231551 -4.99503e-16)
(-0.493146 0.233742 4.68915e-16)
(-0.53178 0.220209 0)
(-0.565588 0.190231 8.80228e-16)
(-0.592706 0.147112 -8.847e-16)
(-0.612884 0.0911878 9.10281e-16)
(-0.625448 0.0256204 -1.91935e-15)
(-0.63045 -0.0453902 9.61074e-16)
(-0.629185 -0.119534 0)
(-0.624338 -0.19385 -1.73127e-15)
(-0.618208 -0.264602 1.66718e-15)
(-0.611567 -0.327703 1.62173e-15)
(-0.604036 -0.378252 -1.09358e-19)
(-0.590761 -0.406665 -1.612e-15)
(-0.551122 -0.393842 0)
(-0.453827 -0.308526 -1.96568e-15)
(-0.263108 -0.121617 5.64717e-15)
(-0.0184003 0.117084 -5.6752e-15)
(0.0760726 0.196288 -6.89992e-15)
(0.0430353 0.115107 8.00286e-15)
(-0.0658515 0.439101 0)
(-0.186605 0.475162 0)
(-0.291953 0.412508 -2.37542e-16)
(-0.374436 0.34659 2.3339e-16)
(-0.434174 0.31534 0)
(-0.478029 0.312295 -4.47624e-16)
(-0.51917 0.305415 4.23659e-16)
(-0.559764 0.276481 0)
(-0.595231 0.230224 8.1482e-16)
(-0.621991 0.170444 -8.2959e-16)
(-0.636772 0.0990052 8.67865e-16)
(-0.642874 0.0206047 -1.86459e-15)
(-0.644037 -0.0608636 9.26346e-16)
(-0.636948 -0.142037 0)
(-0.627179 -0.219411 0)
(-0.617496 -0.290384 0)
(-0.610939 -0.353114 1.57045e-15)
(-0.608879 -0.40594 -4.97233e-20)
(-0.608363 -0.444555 -1.53069e-15)
(-0.599232 -0.458337 0)
(-0.552367 -0.425391 0)
(-0.422641 -0.311596 2.05242e-15)
(-0.188705 -0.0945145 -3.43962e-15)
(0.0356312 0.121399 -7.80752e-15)
(0.0398922 0.101622 8.41737e-15)
(-0.0659297 0.581268 0)
(-0.186436 0.616648 0)
(-0.299678 0.536197 -2.07406e-16)
(-0.38831 0.453489 2.06808e-16)
(-0.448605 0.407237 0)
(-0.490646 0.393061 -4.10038e-16)
(-0.531161 0.366829 3.94347e-16)
(-0.573173 0.317855 0)
(-0.608718 0.253347 7.80105e-16)
(-0.630891 0.175655 -8.08737e-16)
(-0.637552 0.0886791 8.65529e-16)
(-0.639581 -0.00215583 -1.90897e-15)
(-0.630978 -0.0917428 9.2376e-16)
(-0.618212 -0.176004 0)
(-0.603879 -0.253144 0)
(-0.590756 -0.322114 0)
(-0.581421 -0.382242 1.59759e-15)
(-0.57921 -0.432626 -2.73784e-20)
(-0.582273 -0.471373 -1.55914e-15)
(-0.583594 -0.493281 0)
(-0.56702 -0.487642 0)
(-0.492083 -0.435949 1.78588e-15)
(-0.319806 -0.28949 -2.38623e-15)
(-0.0750424 -0.03779 -5.32019e-15)
(0.0317007 0.0803752 1.81041e-14)
(-0.0616727 0.712418 0)
(-0.178731 0.762606 0)
(-0.295728 0.6667 0)
(-0.391521 0.556807 0)
(-0.456652 0.481771 3.85839e-16)
(-0.500826 0.446009 -3.85303e-16)
(-0.539061 0.405143 3.76931e-16)
(-0.57805 0.341947 -3.74696e-16)
(-0.611001 0.261394 7.64615e-16)
(-0.628784 0.166224 -1.30584e-19)
(-0.632597 0.0639387 -8.98324e-20)
(-0.627728 -0.0360791 -9.94023e-16)
(-0.619657 -0.127381 -9.37368e-16)
(-0.609095 -0.210888 1.77934e-15)
(-0.598027 -0.28689 -2.56111e-15)
(-0.588692 -0.354845 1.65639e-15)
(-0.582719 -0.413846 0)
(-0.579759 -0.462049 1.60583e-15)
(-0.575465 -0.497625 -1.60098e-15)
(-0.564303 -0.517727 1.60912e-15)
(-0.54258 -0.518418 3.20277e-19)
(-0.492366 -0.493485 4.30617e-19)
(-0.378674 -0.409932 -2.01676e-15)
(-0.176489 -0.184773 0)
(0.0170768 0.0507426 -9.01829e-15)
(-0.0522263 0.82697 0)
(-0.16351 0.900565 0)
(-0.280874 0.788615 0)
(-0.381146 0.645454 0)
(-0.454177 0.53552 -3.63946e-16)
(-0.505653 0.474107 3.71191e-16)
(-0.543359 0.423992 -3.67421e-16)
(-0.578302 0.354752 3.66611e-16)
(-0.609413 0.259742 0)
(-0.62876 0.145621 -8.21969e-16)
(-0.636386 0.0307997 7.02289e-20)
(-0.637578 -0.0681583 9.97253e-16)
(-0.635146 -0.153706 0)
(-0.631383 -0.235052 -8.73968e-16)
(-0.627509 -0.311371 2.49693e-15)
(-0.624803 -0.380433 -1.60741e-15)
(-0.621281 -0.439789 1.57337e-15)
(-0.613211 -0.486696 -1.56011e-15)
(-0.597064 -0.519563 0)
(-0.570272 -0.537683 -1.58872e-15)
(-0.533635 -0.540733 3.26628e-15)
(-0.483716 -0.528511 -3.41684e-15)
(-0.402898 -0.482437 1.8745e-15)
(-0.257284 -0.313014 0)
(-0.0223792 -0.00231092 -6.56382e-15)
(-0.0405053 0.923885 0)
(-0.141751 1.02346 0)
(-0.252011 0.900174 0)
(-0.351869 0.730197 0)
(-0.435404 0.586262 3.51021e-16)
(-0.495994 0.50273 -3.63807e-16)
(-0.537499 0.444469 3.61213e-16)
(-0.576065 0.36742 -3.58578e-16)
(-0.612901 0.25478 7.45242e-16)
(-0.639382 0.122351 -1.05186e-19)
(-0.65713 0.00555192 -9.70801e-16)
(-0.667299 -0.0820666 0)
(-0.672122 -0.163066 -8.91461e-16)
(-0.677502 -0.247102 1.65897e-15)
(-0.681619 -0.327632 -2.35153e-15)
(-0.681268 -0.399811 1.5076e-15)
(-0.67323 -0.460416 0)
(-0.655744 -0.506924 1.46454e-15)
(-0.627678 -0.538937 -1.4754e-15)
(-0.589465 -0.558555 1.50559e-15)
(-0.545032 -0.567496 4.04371e-19)
(-0.496374 -0.565704 -1.63577e-15)
(-0.432795 -0.544041 0)
(-0.328233 -0.430956 0)
(-0.0937821 -0.111741 0)
(-0.0296583 1.00265 0)
(-0.115536 1.13019 0)
(-0.210174 1.00634 1.50779e-16)
(-0.304176 0.821449 -1.58611e-16)
(-0.395407 0.651274 0)
(-0.465504 0.546997 3.59007e-16)
(-0.521441 0.478678 -7.05536e-16)
(-0.57546 0.388748 3.45776e-16)
(-0.622882 0.254959 0)
(-0.661208 0.111171 0)
(-0.690668 0.00526924 0)
(-0.708791 -0.0732341 9.2371e-16)
(-0.724261 -0.160761 -8.38803e-16)
(-0.738149 -0.255234 -7.71861e-16)
(-0.744455 -0.343103 -7.26141e-16)
(-0.740535 -0.419938 1.39574e-15)
(-0.724544 -0.484065 1.36678e-15)
(-0.697022 -0.533895 -1.36085e-15)
(-0.659826 -0.570042 0)
(-0.615635 -0.595981 0)
(-0.569451 -0.614879 1.46476e-15)
(-0.525295 -0.626035 -1.54151e-15)
(-0.474572 -0.62247 0)
(-0.393384 -0.548692 1.91218e-15)
(-0.161862 -0.262196 -6.56056e-15)
(-0.0212338 1.0662 0)
(-0.0886535 1.22123 0)
(-0.164339 1.10511 -1.46275e-16)
(-0.246981 0.916214 1.55148e-16)
(-0.335857 0.730282 3.38057e-16)
(-0.421097 0.610713 -6.98662e-16)
(-0.502477 0.535211 6.67999e-16)
(-0.576526 0.428891 -3.24241e-16)
(-0.63647 0.27217 0)
(-0.68749 0.124767 7.95637e-16)
(-0.731113 0.0304609 -9.19978e-16)
(-0.763881 -0.0537036 -8.71477e-16)
(-0.788979 -0.158817 3.39117e-20)
(-0.806362 -0.265848 1.42342e-15)
(-0.811315 -0.36178 -2.00673e-15)
(-0.801581 -0.44592 1.28637e-15)
(-0.778054 -0.517297 0)
(-0.743275 -0.575081 0)
(-0.700484 -0.620138 0)
(-0.652982 -0.655243 1.31817e-15)
(-0.604625 -0.683368 -1.37341e-15)
(-0.558755 -0.704381 0)
(-0.513346 -0.710778 0)
(-0.448355 -0.662841 -1.74647e-15)
(-0.205204 -0.421325 -1.25824e-19)
(-0.0153676 1.1172 0)
(-0.0656486 1.29346 0)
(-0.123052 1.1886 1.42725e-16)
(-0.192549 1.00491 -1.52042e-16)
(-0.272626 0.81473 -3.26512e-16)
(-0.379752 0.698509 6.47102e-16)
(-0.490278 0.622855 -6.01926e-16)
(-0.58247 0.495497 2.94595e-16)
(-0.653367 0.313991 0)
(-0.719891 0.16547 -7.45897e-16)
(-0.783511 0.0721013 8.35628e-16)
(-0.830137 -0.0325632 8.1811e-16)
(-0.861087 -0.158564 -7.1943e-16)
(-0.879768 -0.277177 -6.54766e-16)
(-0.881401 -0.383977 -6.14734e-16)
(-0.865877 -0.479726 1.18216e-15)
(-0.836407 -0.562166 1.16191e-15)
(-0.796065 -0.630716 -1.16322e-15)
(-0.74815 -0.685666 0)
(-0.695746 -0.72887 -1.22747e-15)
(-0.641136 -0.763303 2.57253e-15)
(-0.588282 -0.79022 -1.36218e-15)
(-0.54492 -0.801563 0)
(-0.489449 -0.772043 1.61795e-15)
(-0.228296 -0.570769 -2.23161e-15)
(-0.0134516 1.15705 8.1276e-17)
(-0.0506676 1.35017 6.87795e-17)
(-0.0938158 1.25383 -1.39185e-16)
(-0.145873 1.07859 2.94336e-16)
(-0.227204 0.905309 4.54243e-20)
(-0.359183 0.817774 -2.82711e-16)
(-0.495324 0.743179 2.61009e-16)
(-0.598999 0.583081 2.63141e-16)
(-0.679342 0.377659 -5.91609e-16)
(-0.766237 0.230486 6.78278e-16)
(-0.847814 0.123179 -7.41117e-16)
(-0.902344 -0.0102255 0)
(-0.938777 -0.154999 -6.63429e-16)
(-0.957266 -0.288798 1.20302e-15)
(-0.954444 -0.412697 -5.63812e-16)
(-0.93359 -0.524174 1.08601e-15)
(-0.897683 -0.620538 -1.06951e-15)
(-0.849849 -0.700568 0)
(-0.793722 -0.764126 0)
(-0.732739 -0.812397 1.14642e-15)
(-0.668679 -0.849219 4.2624e-19)
(-0.606507 -0.877797 -1.28618e-15)
(-0.566662 -0.890713 0)
(-0.522033 -0.873892 0)
(-0.234455 -0.703761 -1.97287e-15)
(-0.0158304 1.18738 0)
(-0.0443967 1.38728 0)
(-0.0755336 1.30151 0)
(-0.113936 1.13972 0)
(-0.210473 1.01668 0)
(-0.371443 0.97267 0)
(-0.524496 0.882647 0)
(-0.629315 0.677459 0)
(-0.720192 0.457199 5.39526e-16)
(-0.828682 0.312825 -6.03152e-16)
(-0.920487 0.179485 0)
(-0.981062 0.0156511 0)
(-1.0216 -0.151122 0)
(-1.03761 -0.307808 0)
(-1.03014 -0.453417 0)
(-1.00245 -0.583196 0)
(-0.956927 -0.694804 -9.88152e-16)
(-0.897529 -0.785927 1.99847e-15)
(-0.829187 -0.8568 -2.05668e-15)
(-0.756757 -0.907766 1.07865e-15)
(-0.68222 -0.943171 1.14561e-15)
(-0.610061 -0.968534 -1.22821e-15)
(-0.578303 -0.978627 -1.33935e-15)
(-0.544011 -0.966136 1.45283e-15)
(-0.22412 -0.815474 -1.81251e-15)
(-0.020091 1.20901 0)
(-0.0428082 1.40824 0)
(-0.0547745 1.32975 1.30454e-16)
(-0.0980574 1.21098 -1.24101e-16)
(-0.233609 1.16531 0)
(-0.422606 1.14744 1.99039e-16)
(-0.573998 1.01506 -3.91491e-16)
(-0.670603 0.76653 2.15028e-16)
(-0.776155 0.549694 4.88502e-16)
(-0.898977 0.401108 -5.33647e-16)
(-0.996386 0.232851 -5.85123e-16)
(-1.06476 0.0397613 1.32781e-15)
(-1.10738 -0.155057 -5.65895e-16)
(-1.12013 -0.339473 -5.09302e-16)
(-1.10627 -0.508853 -4.77997e-16)
(-1.06837 -0.658822 9.22227e-16)
(-1.00919 -0.784914 0)
(-0.934482 -0.886939 9.32092e-16)
(-0.850851 -0.962223 -9.70336e-16)
(-0.764916 -1.01428 0)
(-0.680422 -1.0432 1.10145e-15)
(-0.598645 -1.05776 -2.37309e-15)
(-0.579134 -1.05719 1.30132e-15)
(-0.544304 -1.03063 1.40668e-15)
(-0.192156 -0.889095 -3.4863e-15)
(-0.0217692 1.2239 7.4162e-17)
(-0.0330603 1.41797 6.38665e-17)
(-0.0406204 1.35923 -1.19907e-16)
(-0.12347 1.32338 2.11484e-16)
(-0.30219 1.34863 -3.68849e-16)
(-0.496304 1.31285 1.71316e-16)
(-0.624531 1.1185 0)
(-0.714534 0.851078 3.97629e-16)
(-0.835632 0.650741 -4.43323e-16)
(-0.965997 0.483256 -4.77399e-16)
(-1.07148 0.279035 5.34665e-16)
(-1.14818 0.0576191 0)
(-1.19231 -0.170132 5.25789e-16)
(-1.2011 -0.384145 -4.71832e-16)
(-1.17872 -0.5792 8.82132e-16)
(-1.12665 -0.748645 5.87273e-19)
(-1.05048 -0.889453 -1.70851e-15)
(-0.957273 -0.997755 8.78548e-16)
(-0.855437 -1.07487 -9.16366e-16)
(-0.754479 -1.12028 -9.41082e-19)
(-0.659481 -1.13793 2.12006e-15)
(-0.571085 -1.12888 -1.17148e-15)
(-0.529938 -1.1047 0)
(-0.510688 -1.04183 0)
(-0.117338 -0.87879 0)
(-0.019879 1.23813 0)
(-0.0215505 1.42348 0)
(-0.0515151 1.42853 0)
(-0.19472 1.48805 0)
(-0.391624 1.54137 0)
(-0.556884 1.45299 0)
(-0.655937 1.20633 -1.66496e-16)
(-0.75039 0.945868 1.86612e-16)
(-0.883273 0.75399 4.05304e-16)
(-1.01962 0.555391 -4.3925e-16)
(-1.13719 0.31884 -4.98785e-16)
(-1.22392 0.0676929 5.92345e-16)
(-1.26939 -0.194401 0)
(-1.27418 -0.440636 -4.38043e-16)
(-1.2402 -0.662523 4.10016e-16)
(-1.17155 -0.852669 0)
(-1.07464 -1.00543 0)
(-0.959382 -1.11729 8.2663e-16)
(-0.836973 -1.18852 -1.75417e-15)
(-0.717326 -1.22073 9.43387e-16)
(-0.609085 -1.21614 1.04386e-15)
(-0.512132 -1.17527 -2.31667e-15)
(-0.449948 -1.1051 1.2764e-15)
(-0.397027 -0.975221 0)
(-0.0160319 -0.7551 -1.72036e-15)
(-0.0126845 1.2615 0)
(-0.0241434 1.4642 0)
(-0.108145 1.55537 9.07683e-17)
(-0.279781 1.67206 -7.76942e-17)
(-0.458683 1.69916 0)
(-0.584989 1.54663 1.45561e-16)
(-0.669237 1.27326 -3.19304e-16)
(-0.775967 1.03011 1.76138e-16)
(-0.913017 0.833999 3.77682e-16)
(-1.053 0.610277 -4.13268e-16)
(-1.1846 0.354292 0)
(-1.27936 0.0772601 5.76534e-16)
(-1.32841 -0.225061 -4.66557e-16)
(-1.32984 -0.508293 -4.10569e-16)
(-1.28385 -0.762702 -3.82597e-16)
(-1.19565 -0.977544 7.44021e-16)
(-1.07498 -1.14352 0)
(-0.934696 -1.25796 7.86289e-16)
(-0.788042 -1.32019 -8.41376e-16)
(-0.646867 -1.33554 0)
(-0.518383 -1.30556 0)
(-0.404984 -1.23318 0)
(-0.308642 -1.11843 0)
(-0.217056 -0.935362 1.27531e-15)
(0.0927385 -0.691642 -3.48687e-15)
(-0.00800985 1.30078 0)
(-0.0492302 1.5447 0)
(-0.163873 1.7043 0)
(-0.328849 1.83663 0)
(-0.474589 1.82722 0)
(-0.57128 1.63742 0)
(-0.650947 1.37013 0)
(-0.76221 1.15156 0)
(-0.896018 0.952368 0)
(-1.04205 0.710803 0)
(-1.19039 0.43216 0)
(-1.30242 0.112381 0)
(-1.3636 -0.239859 0)
(-1.36653 -0.575089 0)
(-1.31091 -0.877394 0)
(-1.20303 -1.1294 0)
(-1.05667 -1.31894 0)
(-0.889059 -1.44096 0)
(-0.716445 -1.49946 0)
(-0.550805 -1.50076 0)
(-0.398393 -1.45314 0)
(-0.259743 -1.36227 0)
(-0.127079 -1.23314 0)
(0.00934018 -1.05296 0)
(0.184848 -0.840953 0)
(-0.00606134 1.35365 0)
(-0.0741916 1.64842 0)
(-0.193702 1.84623 0)
(-0.332705 1.96963 0)
(-0.442719 1.9326 0)
(-0.518488 1.72316 0)
(-0.598108 1.47617 0)
(-0.706496 1.27954 0)
(-0.829038 1.08029 0)
(-0.974715 0.838641 0)
(-1.14533 0.562278 0)
(-1.2876 0.227532 0)
(-1.36387 -0.16802 0)
(-1.39628 -0.560858 0)
(-1.34654 -0.922789 0)
(-1.23199 -1.22837 0)
(-1.06789 -1.45683 0)
(-0.877603 -1.60133 0)
(-0.681455 -1.66838 0)
(-0.492554 -1.66983 0)
(-0.315748 -1.61666 0)
(-0.149228 -1.51853 0)
(0.0150978 -1.38129 0)
(0.186158 -1.22128 0)
(0.386122 -1.04041 0)
(-0.00324472 1.41222 0)
(-0.0794911 1.75258 0)
(-0.182493 1.96396 0)
(-0.287905 2.07224 0)
(-0.366396 2.00942 0)
(-0.426231 1.80046 0)
(-0.501868 1.5751 0)
(-0.60009 1.39779 0)
(-0.705483 1.2058 0)
(-0.842128 0.969137 0)
(-1.01888 0.69228 0)
(-1.18515 0.343452 0)
(-1.308 -0.0859079 0)
(-1.36808 -0.543254 0)
(-1.33117 -0.97647 0)
(-1.21687 -1.34962 0)
(-1.03881 -1.62764 0)
(-0.829464 -1.79817 0)
(-0.614415 -1.8728 0)
(-0.407982 -1.87148 0)
(-0.213821 -1.81047 0)
(-0.0269659 -1.70251 0)
(0.157077 -1.56583 0)
(0.344444 -1.41569 0)
(0.552892 -1.25583 0)
(0.00669079 1.46006 0)
(-0.0584285 1.83879 0)
(-0.131397 2.04954 0)
(-0.202696 2.13988 0)
(-0.254097 2.06765 0)
(-0.29716 1.864 0)
(-0.36115 1.65662 0)
(-0.441901 1.49785 0)
(-0.523741 1.32189 0)
(-0.63655 1.10083 0)
(-0.807153 0.840303 0)
(-0.999358 0.50777 0)
(-1.15264 0.0701518 0)
(-1.25335 -0.457262 0)
(-1.2558 -0.979912 0)
(-1.1527 -1.44758 0)
(-0.969652 -1.79772 0)
(-0.748706 -2.00624 0)
(-0.521753 -2.0919 0)
(-0.304447 -2.08744 0)
(-0.0990801 -2.01646 0)
(0.0980743 -1.89848 0)
(0.289272 -1.75959 0)
(0.478588 -1.61357 0)
(0.673734 -1.47003 0)
(0.0202986 1.48188 0)
(-0.0147178 1.89372 0)
(-0.0520189 2.09855 0)
(-0.0878941 2.18986 0)
(-0.11281 2.10559 0)
(-0.137488 1.91088 0)
(-0.182633 1.71652 0)
(-0.239973 1.57497 0)
(-0.291363 1.42153 0)
(-0.366564 1.22609 0)
(-0.509045 0.998975 0)
(-0.703127 0.719596 0)
(-0.870459 0.308185 0)
(-1.03508 -0.264786 0)
(-1.08842 -0.89757 0)
(-1.01491 -1.49682 0)
(-0.842253 -1.95246 0)
(-0.622949 -2.2165 0)
(-0.39514 -2.31764 0)
(-0.176092 -2.30906 0)
(0.0326432 -2.22605 0)
(0.231373 -2.09842 0)
(0.42055 -1.95362 0)
(0.605544 -1.80641 0)
(0.791296 -1.66552 0)
(0.0423795 1.46443 0)
(0.0446211 1.91282 0)
(0.0454563 2.11145 0)
(0.0453721 2.18849 0)
(0.0480763 2.12175 0)
(0.0443632 1.93855 0)
(0.0217056 1.74988 0)
(-0.00780567 1.61966 0)
(-0.0245777 1.49298 0)
(-0.0457972 1.33067 0)
(-0.125463 1.14982 0)
(-0.28897 0.952747 0)
(-0.460322 0.664651 0)
(-0.658581 0.129299 0)
(-0.798177 -0.656112 0)
(-0.77602 -1.44741 0)
(-0.638958 -2.0618 0)
(-0.442271 -2.41043 0)
(-0.229058 -2.53628 0)
(-0.0185028 -2.52462 0)
(0.183645 -2.43131 0)
(0.374885 -2.29428 0)
(0.556715 -2.14164 0)
(0.732345 -1.98972 0)
(0.90509 -1.84732 0)
(0.0705481 1.39845 0)
(0.11403 1.89322 0)
(0.152492 2.08897 0)
(0.187061 2.16614 0)
(0.217545 2.11169 0)
(0.235628 1.94396 0)
(0.235589 1.75512 0)
(0.232801 1.61774 0)
(0.247996 1.50634 0)
(0.277728 1.37627 0)
(0.2707 1.22506 0)
(0.176844 1.07344 0)
(0.0487515 0.92836 0)
(0.0267235 0.765432 0)
(-0.36863 -0.15963 0)
(-0.417339 -1.24002 0)
(-0.347491 -2.09042 0)
(-0.201216 -2.56708 0)
(-0.0210137 -2.73313 0)
(0.16846 -2.72345 0)
(0.354612 -2.62457 0)
(0.531821 -2.47903 0)
(0.700202 -2.31797 0)
(0.862574 -2.16025 0)
(1.02168 -2.01423 0)
(0.099306 1.27699 0)
(0.18831 1.83134 0)
(0.262856 2.03175 0)
(0.328863 2.11095 0)
(0.386667 2.07094 0)
(0.428289 1.92536 0)
(0.448784 1.73703 0)
(0.467586 1.57829 0)
(0.510052 1.45924 0)
(0.579169 1.34554 0)
(0.648981 1.21378 0)
(0.623381 1.07296 0)
(0.493074 0.996308 0)
(0.464439 0.92933 0)
(0.178273 0.456745 0)
(0.0356291 -0.871922 0)
(0.022814 -2.01956 0)
(0.0945192 -2.66964 0)
(0.225852 -2.89294 0)
(0.383862 -2.8953 0)
(0.545225 -2.79785 0)
(0.701949 -2.64661 0)
(0.852586 -2.47844 0)
(0.998475 -2.31513 0)
(1.14176 -2.16578 0)
(0.129984 1.09441 0)
(0.263356 1.72648 0)
(0.370704 1.9423 0)
(0.46522 2.02472 0)
(0.549369 2.00341 0)
(0.613987 1.88098 0)
(0.654125 1.69991 0)
(0.687474 1.51897 0)
(0.744613 1.36865 0)
(0.841557 1.24344 0)
(0.965759 1.12159 0)
(1.01088 0.969862 0)
(0.931048 0.86317 0)
(0.852066 0.775333 0)
(0.657249 0.628619 0)
(0.508317 -0.502364 0)
(0.439798 -1.85085 0)
(0.432401 -2.6791 0)
(0.50621 -2.99826 0)
(0.623051 -3.03236 0)
(0.753159 -2.94417 0)
(0.884251 -2.79175 0)
(1.01258 -2.61908 0)
(1.13915 -2.45239 0)
(1.26569 -2.30118 0)
(0.156659 0.843658 0)
(0.33449 1.58208 0)
(0.47326 1.8237 0)
(0.591874 1.91298 0)
(0.698626 1.90799 0)
(0.785442 1.81183 0)
(0.845246 1.64774 0)
(0.889517 1.45674 0)
(0.950492 1.27196 0)
(1.05201 1.11231 0)
(1.20249 0.974991 0)
(1.31486 0.810219 0)
(1.30109 0.676114 0)
(1.21157 0.602939 0)
(1.08141 0.445755 0)
(0.963607 -0.326191 0)
(0.865154 -1.64893 0)
(0.79419 -2.6234 0)
(0.808856 -3.05178 0)
(0.880006 -3.12698 0)
(0.973922 -3.05765 0)
(1.07486 -2.90994 0)
(1.1779 -2.73694 0)
(1.28305 -2.56991 0)
(1.39131 -2.41973 0)
(0.170123 0.528428 0)
(0.395414 1.37872 0)
(0.566102 1.67885 0)
(0.70523 1.78171 0)
(0.83014 1.79186 0)
(0.936457 1.72091 0)
(1.01588 1.58075 0)
(1.07117 1.39647 0)
(1.12903 1.19231 0)
(1.22223 0.994401 0)
(1.36777 0.826679 0)
(1.5168 0.647962 0)
(1.58666 0.482754 0)
(1.53309 0.369579 0)
(1.44275 0.247716 0)
(1.37761 -0.25952 0)
(1.2688 -1.4701 0)
(1.15472 -2.51119 0)
(1.11826 -3.04417 0)
(1.14467 -3.17512 0)
(1.20042 -3.13474 0)
(1.26886 -2.9981 0)
(1.3443 -2.82956 0)
(1.42665 -2.66663 0)
(1.51627 -2.52085 0)
(0.157408 0.20142 0)
(0.432751 1.10719 0)
(0.641839 1.50659 0)
(0.802064 1.63774 0)
(0.940695 1.66201 0)
(1.06291 1.61295 0)
(1.15992 1.49877 0)
(1.22752 1.33303 0)
(1.28405 1.12838 0)
(1.36081 0.910442 0)
(1.48101 0.713346 0)
(1.64364 0.521721 0)
(1.77632 0.337945 0)
(1.77644 0.240016 0)
(1.74273 0.156595 0)
(1.72021 -0.283629 0)
(1.61472 -1.32249 0)
(1.48226 -2.37519 0)
(1.41323 -3.00689 0)
(1.40332 -3.18212 0)
(1.42342 -3.17665 0)
(1.45901 -3.0551 0)
(1.50651 -2.89622 0)
(1.56608 -2.74193 0)
(1.63705 -2.60453 0)
(0.0957393 -0.0792142 0)
(0.427507 0.781273 0)
(0.687587 1.29442 0)
(0.876918 1.48089 0)
(1.0288 1.5248 0)
(1.16185 1.49423 0)
(1.27216 1.40394 0)
(1.353 1.26055 0)
(1.4129 1.06888 0)
(1.47638 0.853728 0)
(1.56751 0.648703 0)
(1.72131 0.448887 0)
(1.87766 0.26094 0)
(1.93109 0.145356 0)
(1.95605 0.0506546 0)
(1.96478 -0.2955 0)
(1.87494 -1.20466 0)
(1.75291 -2.24168 0)
(1.6756 -2.93686 0)
(1.64219 -3.16517 0)
(1.63212 -3.18656 0)
(1.63724 -3.08204 0)
(1.65852 -2.93749 0)
(1.69666 -2.79675 0)
(1.75009 -2.67137 0)
(-0.000378263 -0.136296 0)
(0.359632 0.419649 0)
(0.685629 1.02263 0)
(0.92028 1.30055 0)
(1.09088 1.38236 0)
(1.23126 1.37182 0)
(1.35063 1.30178 0)
(1.44426 1.17883 0)
(1.51321 1.00623 0)
(1.56978 0.809001 0)
(1.64222 0.615807 0)
(1.77406 0.418735 0)
(1.91763 0.227929 0)
(2.00238 0.101997 0)
(2.06869 0.00918414 0)
(2.10116 -0.328745 0)
(2.04176 -1.12809 0)
(1.95832 -2.13401 0)
(1.89526 -2.86287 0)
(1.85026 -3.12661 0)
(1.8165 -3.16783 0)
(1.79591 -3.08185 0)
(1.79482 -2.95596 0)
(1.81437 -2.83287 0)
(1.85206 -2.7227 0)
(-0.0300644 -0.0503645 0)
(0.198735 0.0609609 0)
(0.610403 0.667282 0)
(0.915682 1.07183 0)
(1.11988 1.22804 0)
(1.27018 1.24986 0)
(1.39576 1.19864 0)
(1.49997 1.09199 0)
(1.58036 0.937965 0)
(1.63935 0.761405 0)
(1.70421 0.583249 0)
(1.80764 0.393757 0)
(1.91957 0.20237 0)
(2.00932 0.0519079 0)
(2.10346 -0.065492 0)
(2.14017 -0.371009 0)
(2.13028 -1.10068 0)
(2.10607 -2.0699 0)
(2.07036 -2.79224 0)
(2.02114 -3.07686 0)
(1.97012 -3.12784 0)
(1.93019 -3.05992 0)
(1.91167 -2.95593 0)
(1.91585 -2.85319 0)
(1.93996 -2.76036 0)
(-0.010449 -0.0577098 0)
(0.0473837 -0.179879 0)
(0.429319 0.235638 0)
(0.835524 0.757786 0)
(1.10051 1.03977 0)
(1.2733 1.12133 0)
(1.40593 1.0952 0)
(1.51834 1.00257 0)
(1.60935 0.862454 0)
(1.67536 0.697986 0)
(1.73783 0.5231 0)
(1.8158 0.333775 0)
(1.89628 0.134482 0)
(1.97596 -0.0359278 0)
(2.07109 -0.16825 0)
(2.12737 -0.445745 0)
(2.1731 -1.13483 0)
(2.21169 -2.05985 0)
(2.20419 -2.73851 0)
(2.15448 -3.01919 0)
(2.09124 -3.07408 0)
(2.03775 -3.02312 0)
(2.00623 -2.94179 0)
(1.99849 -2.86059 0)
(2.01168 -2.78647 0)
(0.032399 -0.137658 0)
(0.130713 -0.283177 0)
(0.258409 -0.191504 0)
(0.665325 0.343771 0)
(1.00984 0.779207 0)
(1.22567 0.963935 0)
(1.37303 0.982254 0)
(1.49244 0.906714 0)
(1.59 0.774107 0)
(1.66339 0.608771 0)
(1.72564 0.425791 0)
(1.78761 0.225271 0)
(1.85114 0.0141599 0)
(1.92579 -0.167543 0)
(2.01188 -0.291852 0)
(2.09294 -0.548745 0)
(2.19745 -1.22502 0)
(2.28754 -2.09595 0)
(2.30065 -2.71012 0)
(2.2505 -2.95861 0)
(2.17883 -3.0107 0)
(2.11636 -2.97564 0)
(2.07648 -2.91712 0)
(2.06053 -2.85821 0)
(2.06566 -2.80356 0)
(0.0501314 -0.281746 0)
(0.195811 -0.409278 0)
(0.292387 -0.355122 0)
(0.474631 -0.0898003 0)
(0.840522 0.438611 0)
(1.10799 0.755382 0)
(1.27949 0.84478 0)
(1.40634 0.795059 0)
(1.50758 0.666684 0)
(1.58739 0.49488 0)
(1.6547 0.30048 0)
(1.71909 0.0924004 0)
(1.78757 -0.120774 0)
(1.87216 -0.29355 0)
(1.95558 -0.396966 0)
(2.05186 -0.666473 0)
(2.21332 -1.35959 0)
(2.34071 -2.16399 0)
(2.36124 -2.68971 0)
(2.30831 -2.89433 0)
(2.23153 -2.94057 0)
(2.16516 -2.9217 0)
(2.12161 -2.88633 0)
(2.10147 -2.84967 0)
(2.10177 -2.81441 0)
(0.0467515 -0.441457 0)
(0.193731 -0.53607 0)
(0.295412 -0.436281 0)
(0.351765 -0.293055 0)
(0.614672 0.0998545 0)
(0.908264 0.503876 0)
(1.1034 0.674777 0)
(1.23907 0.660042 0)
(1.34571 0.539845 0)
(1.4359 0.366331 0)
(1.52068 0.171131 0)
(1.60601 -0.0313029 0)
(1.69754 -0.232464 0)
(1.79386 -0.381917 0)
(1.86688 -0.469635 0)
(1.99966 -0.809637 0)
(2.22844 -1.53677 0)
(2.36756 -2.24901 0)
(2.38674 -2.67051 0)
(2.32859 -2.82774 0)
(2.25048 -2.8688 0)
(2.18538 -2.86681 0)
(2.14297 -2.85402 0)
(2.12227 -2.83849 0)
(2.12044 -2.82171 0)
(0.0202541 -0.565426 0)
(0.137313 -0.602253 0)
(0.187694 -0.469761 0)
(0.129986 -0.303576 0)
(0.279311 -0.125257 0)
(0.590565 0.247545 0)
(0.814566 0.477431 0)
(0.965383 0.500301 0)
(1.08654 0.396028 0)
(1.19828 0.23052 0)
(1.31079 0.0449142 0)
(1.42216 -0.145255 0)
(1.54099 -0.331736 0)
(1.63601 -0.442168 0)
(1.72367 -0.557724 0)
(1.95826 -1.02842 0)
(2.25356 -1.75391 0)
(2.37594 -2.33584 0)
(2.38009 -2.6429 0)
(2.31454 -2.75892 0)
(2.23883 -2.79945 0)
(2.18023 -2.81562 0)
(2.14282 -2.82401 0)
(2.12458 -2.82766 0)
(2.12302 -2.82768 0)
(-0.0316692 -0.618799 0)
(-0.00976916 -0.60228 0)
(-0.0524567 -0.436554 0)
(-0.245655 -0.258588 0)
(-0.318879 -0.174645 0)
(0.0566787 0.0354312 0)
(0.360212 0.266363 0)
(0.546809 0.314869 0)
(0.696704 0.228882 0)
(0.836115 0.0745655 0)
(0.971702 -0.107015 0)
(1.11567 -0.300885 0)
(1.26065 -0.452994 0)
(1.38277 -0.531587 0)
(1.6026 -0.765618 0)
(1.98027 -1.35252 0)
(2.28047 -1.98107 0)
(2.35969 -2.39685 0)
(2.33673 -2.60042 0)
(2.26699 -2.68916 0)
(2.2012 -2.73733 0)
(2.15371 -2.77237 0)
(2.12441 -2.79945 0)
(2.11076 -2.81943 0)
(2.11101 -2.83406 0)
(-0.0997769 -0.585774 0)
(-0.195402 -0.521782 0)
(-0.383656 -0.350541 0)
(-0.624476 -0.245863 0)
(-0.700824 -0.174337 0)
(-0.541469 -0.0735502 0)
(-0.333553 0.0427057 0)
(-0.114474 0.0750261 0)
(0.0751586 -0.00617825 0)
(0.244437 -0.203237 0)
(0.464278 -0.421251 0)
(0.713935 -0.576745 0)
(0.954597 -0.646219 0)
(1.23833 -0.764598 0)
(1.65369 -1.16127 0)
(2.06418 -1.714 0)
(2.26286 -2.15603 0)
(2.29857 -2.41317 0)
(2.25414 -2.54688 0)
(2.19319 -2.62684 0)
(2.14419 -2.68875 0)
(2.11099 -2.7405 0)
(2.09126 -2.78228 0)
(2.08328 -2.81528 0)
(2.08633 -2.84192 0)
(-0.174039 -0.453854 0)
(-0.387313 -0.346361 0)
(-0.646685 -0.257386 0)
(-0.879944 -0.218876 0)
(-0.996249 -0.201752 0)
(-0.972805 -0.203237 0)
(-0.850267 -0.248153 0)
(-0.670852 -0.373222 0)
(-0.370242 -0.571405 0)
(-0.0328716 -0.763795 0)
(0.317744 -0.862315 0)
(0.652282 -0.89917 0)
(0.993499 -0.951387 0)
(1.40523 -1.18389 0)
(1.83001 -1.58914 0)
(2.10978 -1.97574 0)
(2.19381 -2.23566 0)
(2.18596 -2.39166 0)
(2.14304 -2.49671 0)
(2.10329 -2.58267 0)
(2.07511 -2.65781 0)
(2.05682 -2.72127 0)
(2.04676 -2.77314 0)
(2.04467 -2.81565 0)
(2.05084 -2.85181 0)
(-0.220065 -0.176533 0)
(-0.497058 -0.151881 0)
(-0.765028 -0.131974 0)
(-0.987932 -0.153153 0)
(-1.08918 -0.213125 0)
(-1.07505 -0.309206 0)
(-0.885521 -0.453165 0)
(-0.586654 -0.64345 0)
(-0.229452 -0.850898 0)
(0.139216 -1.03028 0)
(0.493906 -1.12228 0)
(0.842474 -1.18823 0)
(1.21976 -1.32945 0)
(1.60138 -1.58877 0)
(1.89243 -1.87495 0)
(2.0233 -2.09645 0)
(2.05181 -2.24903 0)
(2.03947 -2.36566 0)
(2.02164 -2.46851 0)
(2.00899 -2.56243 0)
(2.00065 -2.64467 0)
(1.99542 -2.71381 0)
(1.99388 -2.77145 0)
(1.99723 -2.82052 0)
(2.00652 -2.86388 0)
(-0.171755 0.0878882 0)
(-0.440386 0.0849126 0)
(-0.689295 0.0741619 0)
(-0.897571 0.0231087 0)
(-0.992516 -0.0723767 0)
(-0.927455 -0.216092 0)
(-0.728138 -0.428163 0)
(-0.421965 -0.723073 0)
(-0.062733 -1.07012 0)
(0.30127 -1.29259 0)
(0.657872 -1.41817 0)
(1.00964 -1.52871 0)
(1.34905 -1.68202 0)
(1.62286 -1.86184 0)
(1.78445 -2.02064 0)
(1.85561 -2.14717 0)
(1.8827 -2.25831 0)
(1.89765 -2.36586 0)
(1.90986 -2.46952 0)
(1.91916 -2.56396 0)
(1.92524 -2.64592 0)
(1.92979 -2.71584 0)
(1.93511 -2.77612 0)
(1.94316 -2.82939 0)
(1.95527 -2.87802 0)
(-0.0794034 0.302469 0)
(-0.260951 0.321988 0)
(-0.478951 0.299106 0)
(-0.679309 0.232151 0)
(-0.756924 0.0959399 0)
(-0.705682 -0.120183 0)
(-0.543004 -0.439515 0)
(-0.242389 -0.903217 0)
(0.104161 -1.38459 0)
(0.449626 -1.62367 0)
(0.781388 -1.75233 0)
(1.08746 -1.84593 0)
(1.3417 -1.93699 0)
(1.51782 -2.02493 0)
(1.62467 -2.10943 0)
(1.69185 -2.19798 0)
(1.74225 -2.29467 0)
(1.78298 -2.39523 0)
(1.8139 -2.49189 0)
(1.8355 -2.57943 0)
(1.85037 -2.65664 0)
(1.86177 -2.72479 0)
(1.87248 -2.78583 0)
(1.8844 -2.84166 0)
(1.89882 -2.8939 0)
(-0.000188291 0.482357 0)
(-0.075195 0.516702 0)
(-0.227574 0.483469 0)
(-0.384387 0.405571 0)
(-0.408769 0.231748 0)
(-0.387367 -0.0330959 0)