/*--------------------------------*- C++ -*----------------------------------*\
  =========                 |
  \\      /  F ield         | OpenFOAM: The Open Source CFD Toolbox
   \\    /   O peration     | Website:  https://openfoam.org
    \\  /    A nd           | Version:  13
     \\/     M anipulation  |
\*---------------------------------------------------------------------------*/
FoamFile
{
    format      ascii;
    class       volVectorField;
    location    "15";
    object      U;
}
// * * * * * * * * * * * * * * * * * * * * * * * * * * * * * * * * * * * * * //

dimensions      [0 1 -1 0 0 0 0];

internalField   nonuniform List<vector> 
6440
(
(-8.7073e-08 1.62961e-07 0)
(-2.54686e-07 2.21403e-07 0)
(-5.05308e-07 2.44835e-07 -1.46111e-20)
(-7.68524e-07 3.06041e-07 1.45752e-20)
(-1.07321e-06 3.88196e-07 0)
(-1.38354e-06 4.71426e-07 -2.8963e-20)
(-1.68057e-06 5.50689e-07 2.88224e-20)
(-1.94886e-06 6.20887e-07 0)
(-2.17426e-06 6.80643e-07 5.70272e-20)
(-2.34187e-06 7.28131e-07 -5.66201e-20)
(-2.41831e-06 7.5675e-07 -5.62219e-20)
(-2.38622e-06 7.52601e-07 -1.97161e-23)
(-2.25108e-06 7.1039e-07 -1.55705e-23)
(-2.00659e-06 6.26247e-07 5.47075e-20)
(-1.65968e-06 4.9362e-07 5.41426e-20)
(-1.2393e-06 3.39006e-07 -5.35344e-20)
(-7.75499e-07 1.58138e-07 0)
(-3.31829e-07 -4.49348e-08 1.04446e-19)
(3.20639e-08 -2.36343e-07 -3.34548e-23)
(3.25966e-07 -3.88803e-07 -1.01664e-19)
(5.53848e-07 -4.97201e-07 1.00153e-19)
(6.76846e-07 -5.31067e-07 -1.9735e-19)
(7.60781e-07 -4.71027e-07 9.71736e-20)
(6.64777e-07 -1.37086e-07 -9.55859e-20)
(2.10617e-07 2.75385e-07 1.51943e-23)
(-7.87111e-08 5.17316e-07 0)
(-2.62101e-07 8.03109e-07 0)
(-5.50273e-07 9.63249e-07 -1.50787e-20)
(-8.83622e-07 1.15544e-06 1.50431e-20)
(-1.25317e-06 1.31795e-06 0)
(-1.61088e-06 1.41347e-06 -2.98982e-20)
(-1.93241e-06 1.43425e-06 2.97584e-20)
(-2.20787e-06 1.38774e-06 0)
(-2.40994e-06 1.28286e-06 0)
(-2.49463e-06 1.12312e-06 0)
(-2.43093e-06 9.11506e-07 0)
(-2.21544e-06 6.64648e-07 -5.76379e-20)
(-1.84925e-06 3.92137e-07 5.71219e-20)
(-1.366e-06 1.15229e-07 0)
(-7.53853e-07 -1.62886e-07 5.60312e-20)
(-5.55789e-08 -4.18949e-07 -5.54231e-20)
(5.92797e-07 -5.87044e-07 0)
(1.11139e-06 -6.3373e-07 0)
(1.52374e-06 -5.49061e-07 1.06815e-19)
(1.85309e-06 -3.52676e-07 -1.05418e-19)
(2.02485e-06 -6.03339e-08 1.03876e-19)
(1.97451e-06 2.88462e-07 -1.02415e-19)
(1.83169e-06 6.15793e-07 -1.00798e-19)
(1.52995e-06 1.00976e-06 6.56432e-23)
(4.75377e-07 1.23397e-06 7.64629e-20)
(-6.09346e-08 8.16906e-07 0)
(-2.29541e-07 1.30194e-06 0)
(-4.76473e-07 1.58362e-06 -1.4925e-20)
(-7.72059e-07 1.85606e-06 1.48923e-20)
(-1.09376e-06 2.01992e-06 0)
(-1.41252e-06 2.03356e-06 -2.96122e-20)
(-1.7082e-06 1.89715e-06 5.89777e-20)
(-1.94357e-06 1.63408e-06 -2.93454e-20)
(-2.08553e-06 1.27912e-06 5.84021e-20)
(-2.11121e-06 8.55272e-07 -5.80282e-20)
(-1.97359e-06 3.79137e-07 -5.76672e-20)
(-1.66889e-06 -1.1082e-07 -2.18971e-23)
(-1.2424e-06 -5.70474e-07 5.67668e-20)
(-7.11938e-07 -9.60891e-07 5.62899e-20)
(-1.05359e-07 -1.22632e-06 6.74248e-24)
(5.36855e-07 -1.33548e-06 -5.51941e-20)
(1.15756e-06 -1.22954e-06 0)
(1.74991e-06 -8.92302e-07 1.07928e-19)
(2.32006e-06 -3.41684e-07 -1.0666e-19)
(2.79375e-06 3.68421e-07 0)
(3.05818e-06 1.14165e-06 1.0383e-19)
(3.06483e-06 1.80896e-06 -2.0484e-19)
(2.90096e-06 2.14917e-06 1.00984e-19)
(2.35785e-06 2.18441e-06 -9.93958e-20)
(7.32767e-07 1.77375e-06 7.76656e-20)
(-4.70034e-08 1.04183e-06 0)
(-1.7826e-07 1.656e-06 0)
(-3.74994e-07 2.04917e-06 -1.47249e-20)
(-6.31589e-07 2.39614e-06 1.46949e-20)
(-9.20145e-07 2.55372e-06 0)
(-1.22716e-06 2.47053e-06 -2.92336e-20)
(-1.54174e-06 2.17548e-06 5.82417e-20)
(-1.8159e-06 1.7187e-06 -2.89895e-20)
(-2.02702e-06 1.15225e-06 0)
(-2.15145e-06 5.13566e-07 0)
(-2.13714e-06 -1.54032e-07 0)
(-1.99357e-06 -8.15331e-07 -5.66598e-20)
(-1.74582e-06 -1.38924e-06 5.62192e-20)
(-1.3937e-06 -1.81395e-06 5.57828e-20)
(-9.37467e-07 -2.02949e-06 -5.52856e-20)
(-3.79949e-07 -1.98194e-06 0)
(2.46403e-07 -1.62929e-06 1.08425e-19)
(9.22379e-07 -9.61021e-07 -1.07287e-19)
(1.65599e-06 -5.17771e-08 0)
(2.38802e-06 9.80959e-07 0)
(3.00176e-06 1.97521e-06 0)
(3.35869e-06 2.72461e-06 0)
(3.33215e-06 2.9489e-06 0)
(2.73148e-06 2.65785e-06 -9.91689e-20)
(8.46086e-07 1.93689e-06 3.72044e-23)
(-3.85596e-08 1.21758e-06 0)
(-1.41658e-07 1.91487e-06 0)
(-3.06021e-07 2.43422e-06 -1.44899e-20)
(-5.48181e-07 2.88585e-06 1.44625e-20)
(-8.46542e-07 3.06634e-06 0)
(-1.18981e-06 2.91849e-06 -2.87843e-20)
(-1.55538e-06 2.49628e-06 5.73628e-20)
(-1.91083e-06 1.875e-06 -2.85614e-20)
(-2.25168e-06 1.14158e-06 0)
(-2.54285e-06 3.56109e-07 0)
(-2.7523e-06 -4.28748e-07 0)
(-2.84306e-06 -1.18101e-06 -5.59232e-20)
(-2.79689e-06 -1.82859e-06 5.55176e-20)
(-2.62801e-06 -2.27987e-06 5.51211e-20)
(-2.3156e-06 -2.44562e-06 -5.46623e-20)
(-1.85466e-06 -2.28207e-06 0)
(-1.24242e-06 -1.77505e-06 1.07347e-19)
(-4.52675e-07 -9.5311e-07 -1.06293e-19)
(5.10607e-07 1.14541e-07 0)
(1.57771e-06 1.28898e-06 0)
(2.62436e-06 2.37269e-06 0)
(3.30419e-06 3.15568e-06 0)
(3.44254e-06 3.33687e-06 0)
(2.93651e-06 2.8477e-06 -9.8619e-20)
(9.06357e-07 1.99664e-06 7.90757e-20)
(-3.19894e-08 1.36544e-06 0)
(-1.1807e-07 2.1322e-06 0)
(-2.70242e-07 2.81041e-06 -1.42293e-20)
(-5.18018e-07 3.40144e-06 1.42041e-20)
(-8.42401e-07 3.62866e-06 0)
(-1.23089e-06 3.43771e-06 -2.8282e-20)
(-1.67219e-06 2.91051e-06 5.63767e-20)
(-2.11782e-06 2.14547e-06 -2.8079e-20)
(-2.55335e-06 1.25234e-06 5.59451e-20)
(-2.98707e-06 3.29253e-07 -5.56556e-20)
(-3.39814e-06 -5.58334e-07 0)
(-3.74542e-06 -1.33795e-06 -5.50678e-20)
(-3.95158e-06 -1.97232e-06 -2.30253e-23)
(-3.94069e-06 -2.42771e-06 1.08657e-19)
(-3.71448e-06 -2.61175e-06 -5.39152e-20)
(-3.30711e-06 -2.43798e-06 0)
(-2.69454e-06 -1.88514e-06 1.0602e-19)
(-1.81678e-06 -1.01191e-06 -3.5302e-23)
(-6.5265e-07 8.37188e-08 -5.88837e-23)
(7.31168e-07 1.25623e-06 -1.02889e-19)
(2.08319e-06 2.35626e-06 0)
(3.04515e-06 3.14097e-06 0)
(3.42221e-06 3.33446e-06 0)
(3.02157e-06 2.78853e-06 -9.78094e-20)
(9.21249e-07 1.96593e-06 7.9366e-20)
(-2.55071e-08 1.49635e-06 0)
(-9.90433e-08 2.34047e-06 0)
(-2.4469e-07 3.21315e-06 -1.39504e-20)
(-5.09318e-07 3.96651e-06 1.39274e-20)
(-8.75122e-07 4.25028e-06 2.78087e-20)
(-1.31951e-06 4.02656e-06 -5.54751e-20)
(-1.82031e-06 3.40603e-06 5.53143e-20)
(-2.33563e-06 2.52669e-06 -2.75577e-20)
(-2.85015e-06 1.49009e-06 0)
(-3.37356e-06 4.26808e-07 5.46842e-20)
(-3.87768e-06 -5.81371e-07 -5.43923e-20)
(-4.31629e-06 -1.437e-06 -5.41252e-20)
(-4.6699e-06 -2.07539e-06 5.37829e-20)
(-4.85003e-06 -2.47598e-06 5.34607e-20)
(-4.74956e-06 -2.67231e-06 -5.30718e-20)
(-4.36581e-06 -2.54713e-06 0)
(-3.72358e-06 -2.02906e-06 1.04495e-19)
(-2.78539e-06 -1.17346e-06 -1.03594e-19)
(-1.5149e-06 -9.92126e-08 0)
(2.79337e-08 1.04499e-06 1.01512e-19)
(1.59612e-06 2.10985e-06 -1.00511e-19)
(2.81543e-06 2.90585e-06 0)
(3.34585e-06 3.17728e-06 0)
(3.04038e-06 2.68834e-06 -9.67893e-20)
(9.25871e-07 1.95645e-06 5.5879e-23)
(-2.0464e-08 1.61524e-06 0)
(-8.16634e-08 2.55374e-06 0)
(-2.19333e-07 3.64137e-06 -1.36595e-20)
(-4.92902e-07 4.55626e-06 1.36385e-20)
(-8.76445e-07 4.88898e-06 0)
(-1.33952e-06 4.6329e-06 -2.71772e-20)
(-1.85255e-06 3.93694e-06 2.70945e-20)
(-2.39678e-06 2.96055e-06 0)
(-2.93788e-06 1.81226e-06 0)
(-3.47197e-06 6.2277e-07 0)
(-3.98277e-06 -4.99441e-07 0)
(-4.43959e-06 -1.46388e-06 -5.31198e-20)
(-4.82848e-06 -2.18302e-06 5.28054e-20)
(-5.12691e-06 -2.60793e-06 0)
(-5.15858e-06 -2.78521e-06 0)
(-4.78299e-06 -2.6997e-06 0)
(-4.11366e-06 -2.24675e-06 0)
(-3.17558e-06 -1.42679e-06 0)
(-1.91522e-06 -3.67793e-07 1.01044e-19)
(-3.45432e-07 7.59947e-07 -1.00146e-19)
(1.30983e-06 1.81469e-06 0)
(2.66049e-06 2.66979e-06 0)
(3.32214e-06 3.05457e-06 0)
(3.1278e-06 2.68101e-06 -9.55995e-20)
(9.63399e-07 2.01806e-06 7.92839e-20)
(-1.73394e-08 1.72141e-06 0)
(-6.84619e-08 2.76401e-06 0)
(-1.88056e-07 4.07394e-06 -1.33613e-20)
(-4.3187e-07 5.12814e-06 1.33421e-20)
(-7.78868e-07 5.4874e-06 0)
(-1.18851e-06 5.17807e-06 -2.65963e-20)
(-1.64244e-06 4.3867e-06 5.30525e-20)
(-2.13144e-06 3.29751e-06 -2.64441e-20)
(-2.62589e-06 2.04879e-06 0)
(-3.09656e-06 7.43859e-07 0)
(-3.54086e-06 -5.00236e-07 5.23161e-20)
(-3.9256e-06 -1.59575e-06 -1.0412e-19)
(-4.2725e-06 -2.42482e-06 5.1783e-20)
(-4.56116e-06 -2.89134e-06 5.15183e-20)
(-4.59541e-06 -3.0234e-06 -5.11892e-20)
(-4.25141e-06 -2.91513e-06 0)
(-3.59477e-06 -2.49937e-06 -1.01026e-19)
(-2.69695e-06 -1.71892e-06 1.00259e-19)
(-1.55168e-06 -6.27754e-07 0)
(-1.2525e-07 6.18152e-07 0)
(1.49625e-06 1.74697e-06 0)
(2.93105e-06 2.65425e-06 9.64684e-20)
(3.65608e-06 3.16111e-06 -9.55616e-20)
(3.43687e-06 2.91225e-06 -9.42764e-20)
(1.07948e-06 2.19088e-06 7.89682e-20)
(-1.41017e-08 1.81076e-06 0)
(-3.9648e-08 2.95186e-06 0)
(-1.16962e-07 4.47533e-06 0)
(-2.762e-07 5.63362e-06 0)
(-5.04957e-07 5.97325e-06 0)
(-7.86109e-07 5.57173e-06 0)
(-1.09057e-06 4.65974e-06 0)
(-1.407e-06 3.43445e-06 0)
(-1.72982e-06 2.03703e-06 -5.16048e-20)
(-2.04702e-06 5.95283e-07 5.14004e-20)
(-2.34179e-06 -7.59082e-07 0)
(-2.57767e-06 -1.92602e-06 0)
(-2.70868e-06 -2.8509e-06 0)
(-2.76957e-06 -3.37812e-06 0)
(-2.75087e-06 -3.45035e-06 0)
(-2.4771e-06 -3.23608e-06 0)
(-1.90648e-06 -2.75955e-06 0)
(-1.09601e-06 -1.9518e-06 -9.8436e-20)
(-4.30341e-08 -8.20588e-07 9.76979e-20)
(1.1716e-06 5.74825e-07 0)
(2.51679e-06 1.97617e-06 -9.59066e-20)
(3.80345e-06 3.06584e-06 9.50882e-20)
(4.46557e-06 3.60825e-06 0)
(4.01945e-06 3.39251e-06 0)
(1.27584e-06 2.48409e-06 0)
(-9.56057e-09 1.87287e-06 0)
(2.00136e-08 3.08207e-06 0)
(3.63477e-08 4.77257e-06 0)
(2.58486e-08 5.9808e-06 0)
(-2.43762e-09 6.24662e-06 0)
(-2.9063e-08 5.71281e-06 0)
(-4.77441e-08 4.6511e-06 2.53649e-20)
(-9.44047e-08 3.26366e-06 -2.52913e-20)
(-1.50623e-07 1.69286e-06 -5.04644e-20)
(-1.45634e-07 1.24586e-07 5.02767e-20)
(-7.63565e-08 -1.34352e-06 5.01177e-20)
(1.0632e-08 -2.56454e-06 -4.98919e-20)
(1.67474e-07 -3.4812e-06 0)
(4.19688e-07 -4.02105e-06 4.94493e-20)
(6.42791e-07 -4.03154e-06 1.86303e-23)
(9.02184e-07 -3.61407e-06 -4.88941e-20)
(1.37554e-06 -2.98471e-06 0)
(2.07002e-06 -2.00362e-06 -9.65647e-20)
(2.92547e-06 -6.8958e-07 9.58834e-20)
(3.88235e-06 8.81241e-07 0)
(4.87979e-06 2.55288e-06 0)
(5.66646e-06 4.03447e-06 9.33112e-20)
(5.87916e-06 4.76897e-06 -9.25321e-20)
(4.98357e-06 4.378e-06 0)
(1.63024e-06 3.01477e-06 0)
(-1.33611e-09 1.87612e-06 0)
(1.26659e-07 3.06392e-06 0)
(3.10609e-07 4.81452e-06 0)
(5.45375e-07 5.96969e-06 0)
(8.40152e-07 6.10273e-06 0)
(1.19489e-06 5.3984e-06 0)
(1.57886e-06 4.15065e-06 0)
(1.94241e-06 2.58044e-06 0)
(2.39411e-06 8.69614e-07 0)
(2.91985e-06 -8.0896e-07 0)
(3.46637e-06 -2.30646e-06 -4.90132e-20)
(4.05774e-06 -3.53069e-06 4.88055e-20)
(4.69393e-06 -4.39744e-06 0)
(5.40144e-06 -4.9189e-06 0)
(5.97488e-06 -4.97844e-06 0)
(6.27602e-06 -4.34427e-06 0)
(6.67929e-06 -3.20022e-06 0)
(7.29433e-06 -1.77485e-06 0)
(7.89998e-06 -3.18624e-08 0)
(8.47369e-06 1.95325e-06 0)
(8.98561e-06 3.98839e-06 0)
(9.08604e-06 5.77619e-06 -9.16385e-20)
(8.35601e-06 6.78127e-06 9.09167e-20)
(6.57187e-06 6.11449e-06 0)
(2.2831e-06 3.79171e-06 0)
(8.53551e-09 1.79665e-06 0)
(2.69872e-07 2.82191e-06 0)
(7.02274e-07 4.48127e-06 0)
(1.32669e-06 5.46055e-06 0)
(2.10376e-06 5.34649e-06 2.42764e-20)
(2.98757e-06 4.38938e-06 -2.42316e-20)
(3.94448e-06 2.90204e-06 0)
(4.95997e-06 1.1484e-06 0)
(6.0862e-06 -6.66465e-07 -4.81944e-20)
(7.33955e-06 -2.42401e-06 9.60992e-20)
(8.65672e-06 -3.95279e-06 2.69084e-23)
(9.94197e-06 -5.15299e-06 -4.7724e-20)
(1.11295e-05 -5.9028e-06 0)
(1.21897e-05 -6.15469e-06 0)
(1.32183e-05 -5.89599e-06 4.71356e-20)
(1.42306e-05 -5.01553e-06 -4.68848e-20)
(1.4977e-05 -3.4814e-06 -9.32755e-20)
(1.54217e-05 -1.40705e-06 4.94238e-25)
(1.56877e-05 1.20996e-06 9.21384e-20)
(1.57404e-05 3.9532e-06 9.14548e-20)
(1.53979e-05 6.59401e-06 -9.08258e-20)
(1.43279e-05 8.72262e-06 8.99373e-20)
(1.22729e-05 9.86123e-06 -8.92685e-20)
(9.12098e-06 8.7641e-06 0)
(3.29454e-06 4.9276e-06 0)
(1.87498e-08 1.60981e-06 0)
(4.63253e-07 2.28645e-06 0)
(1.26846e-06 3.67117e-06 0)
(2.40377e-06 4.31876e-06 0)
(3.79048e-06 3.83689e-06 0)
(5.38531e-06 2.54254e-06 0)
(7.15583e-06 7.71708e-07 0)
(9.07308e-06 -1.18152e-06 0)
(1.11521e-05 -3.13477e-06 -4.70759e-20)
(1.33389e-05 -4.94659e-06 4.69294e-20)
(1.55354e-05 -6.49045e-06 0)
(1.7703e-05 -7.6255e-06 0)
(1.9802e-05 -8.21002e-06 0)
(2.18312e-05 -8.13273e-06 0)
(2.37161e-05 -7.29766e-06 0)
(2.51233e-05 -5.63797e-06 0)
(2.61073e-05 -3.23218e-06 0)
(2.70047e-05 -4.10809e-07 -9.0781e-20)
(2.72463e-05 2.88116e-06 9.02429e-20)
(2.64649e-05 6.64066e-06 0)
(2.47789e-05 1.02118e-05 0)
(2.2181e-05 1.3033e-05 0)
(1.84558e-05 1.44356e-05 0)
(1.32784e-05 1.26846e-05 0)
(4.92992e-06 6.72783e-06 0)
(3.66542e-08 1.28208e-06 0)
(7.24447e-07 1.36286e-06 0)
(2.00373e-06 2.22833e-06 0)
(3.80262e-06 2.31217e-06 0)
(5.98496e-06 1.30408e-06 0)
(8.50268e-06 -4.59243e-07 0)
(1.13187e-05 -2.60153e-06 0)
(1.43773e-05 -4.86467e-06 0)
(1.76041e-05 -7.01622e-06 0)
(2.0935e-05 -8.89663e-06 0)
(2.43266e-05 -1.03303e-05 4.57492e-20)
(2.77356e-05 -1.11895e-05 -4.55863e-20)
(3.10926e-05 -1.13636e-05 0)
(3.43173e-05 -1.07646e-05 0)
(3.72967e-05 -9.30307e-06 4.51055e-20)
(3.99081e-05 -6.9541e-06 -4.48918e-20)
(4.17931e-05 -3.47659e-06 -8.93436e-20)
(4.2667e-05 8.98084e-07 8.887e-20)
(4.26599e-05 5.51814e-06 0)
(4.14136e-05 1.02687e-05 0)
(3.86152e-05 1.49628e-05 0)
(3.44432e-05 1.90369e-05 8.65481e-20)
(2.83262e-05 2.10957e-05 -1.71809e-19)
(2.00176e-05 1.86777e-05 8.52458e-20)
(7.65686e-06 9.81146e-06 0)
(6.0974e-08 7.79367e-07 0)
(1.04165e-06 -4.1307e-08 0)
(2.87856e-06 3.01033e-08 0)
(5.46414e-06 -6.58111e-07 0)
(8.60197e-06 -2.34835e-06 0)
(1.2248e-05 -4.68155e-06 0)
(1.63233e-05 -7.30219e-06 -2.25186e-20)
(2.07378e-05 -9.95618e-06 2.24693e-20)
(2.54471e-05 -1.24158e-05 -4.48838e-20)
(3.03672e-05 -1.44603e-05 4.47586e-20)
(3.53859e-05 -1.58614e-05 -4.46827e-20)
(4.03911e-05 -1.64129e-05 4.45321e-20)
(4.52991e-05 -1.59682e-05 0)
(5.01036e-05 -1.45065e-05 -4.42751e-20)
(5.46663e-05 -1.20494e-05 4.40888e-20)
(5.87019e-05 -8.5005e-06 0)
(6.18757e-05 -3.8685e-06 0)
(6.37684e-05 1.97229e-06 -8.69867e-20)
(6.38558e-05 8.88853e-06 9.08093e-24)
(6.21075e-05 1.62031e-05 8.60332e-20)
(5.88564e-05 2.28163e-05 0)
(5.31457e-05 2.80106e-05 -8.49055e-20)
(4.3793e-05 3.13001e-05 8.43714e-20)
(3.11158e-05 2.80989e-05 0)
(1.23454e-05 1.51066e-05 -7.38386e-20)
(9.09838e-08 6.89276e-08 0)
(1.41994e-06 -1.99483e-06 0)
(3.92474e-06 -3.00065e-06 0)
(7.4522e-06 -4.66786e-06 0)
(1.17492e-05 -7.18827e-06 0)
(1.67068e-05 -1.01871e-05 0)
(2.22195e-05 -1.33462e-05 0)
(2.81974e-05 -1.63909e-05 0)
(3.45834e-05 -1.91031e-05 0)
(4.13193e-05 -2.12792e-05 0)
(4.83485e-05 -2.27039e-05 0)
(5.55658e-05 -2.31296e-05 0)
(6.27684e-05 -2.22669e-05 0)
(6.9707e-05 -1.98695e-05 0)
(7.62868e-05 -1.59941e-05 0)
(8.23456e-05 -1.07713e-05 0)
(8.75051e-05 -4.12435e-06 0)
(9.12335e-05 3.96043e-06 0)
(9.30563e-05 1.3485e-05 0)
(9.21711e-05 2.40757e-05 0)
(8.77709e-05 3.46447e-05 0)
(8.04021e-05 4.27331e-05 0)
(6.78364e-05 4.69789e-05 0)
(4.89792e-05 4.27243e-05 0)
(2.01429e-05 2.30226e-05 0)
(1.26843e-07 -8.82654e-07 5.00223e-21)
(1.86723e-06 -4.56725e-06 5.38699e-21)
(5.14789e-06 -6.98367e-06 -1.07664e-20)
(9.74623e-06 -9.89721e-06 2.15233e-20)
(1.53607e-05 -1.34868e-05 -2.14986e-20)
(2.18245e-05 -1.73884e-05 0)
(2.90074e-05 -2.12666e-05 2.14543e-20)
(3.68126e-05 -2.484e-05 2.14318e-20)
(4.51785e-05 -2.78643e-05 -8.55158e-20)
(5.40483e-05 -3.01144e-05 4.2661e-20)
(6.33587e-05 -3.13814e-05 4.25911e-20)
(7.30584e-05 -3.14821e-05 -4.24615e-20)
(8.30641e-05 -3.02033e-05 -4.23759e-20)
(9.3101e-05 -2.72131e-05 8.44802e-20)
(0.000102729 -2.20945e-05 2.87268e-23)
(0.000111801 -1.48034e-05 4.20107e-20)
(0.000120075 -5.54477e-06 -8.36079e-20)
(0.000127132 5.41488e-06 -8.33404e-20)
(0.000131992 1.81198e-05 1.65926e-19)
(0.000133356 3.20274e-05 -8.25683e-20)
(0.000130385 4.62166e-05 0)
(0.000121365 5.93306e-05 8.17595e-20)
(0.000103911 6.75604e-05 -1.62559e-19)
(7.6279e-05 6.33269e-05 8.07897e-20)
(3.23458e-05 3.39263e-05 7.21775e-20)
(1.61126e-07 -2.09585e-06 0)
(2.35393e-06 -7.80642e-06 0)
(6.4881e-06 -1.19964e-05 0)
(1.2255e-05 -1.64617e-05 0)
(1.92994e-05 -2.14027e-05 0)
(2.74251e-05 -2.64856e-05 0)
(3.64902e-05 -3.13694e-05 0)
(4.63994e-05 -3.57481e-05 0)
(5.70917e-05 -3.93491e-05 0)
(6.85e-05 -4.19087e-05 0)
(8.0552e-05 -4.31617e-05 0)
(9.31921e-05 -4.28475e-05 0)
(0.000106373 -4.07446e-05 0)
(0.00012002 -3.66596e-05 0)
(0.000133942 -3.02904e-05 0)
(0.000147621 -2.11934e-05 0)
(0.000160509 -9.28851e-06 0)
(0.000172279 5.18157e-06 0)
(0.000182003 2.1688e-05 -8.11755e-20)
(0.000188303 4.02562e-05 8.07842e-20)
(0.000189655 5.9774e-05 0)
(0.000183215 7.88471e-05 0)
(0.00016278 9.57942e-05 0)
(0.00012212 0.00010217 0)
(6.05758e-05 6.30396e-05 0)
(2.04317e-07 -3.62511e-06 0)
(2.88407e-06 -1.18196e-05 0)
(7.91503e-06 -1.81714e-05 0)
(1.49039e-05 -2.45355e-05 0)
(2.3449e-05 -3.11433e-05 0)
(3.33467e-05 -3.76917e-05 0)
(4.44739e-05 -4.38681e-05 0)
(5.67349e-05 -4.9371e-05 0)
(7.00681e-05 -5.39111e-05 0)
(8.44304e-05 -5.71906e-05 0)
(9.97894e-05 -5.88794e-05 -4.05751e-20)
(0.000116125 -5.86142e-05 4.04626e-20)
(0.000133398 -5.60242e-05 0)
(0.000151542 -5.07649e-05 0)
(0.000170435 -4.25395e-05 0)
(0.000189894 -3.10714e-05 0)
(0.00020957 -1.59386e-05 0)
(0.000228865 3.10494e-06 0)
(0.000247337 2.55716e-05 0)
(0.000263798 5.18181e-05 0)
(0.000276442 8.21479e-05 0)
(0.000281582 0.00011646 -7.86679e-20)
(0.00027228 0.00015432 7.82615e-20)
(0.000235126 0.00018646 0)
(0.00017053 0.000123777 0)
(2.59364e-07 -5.2955e-06 0)
(3.35293e-06 -1.62276e-05 0)
(9.10987e-06 -2.48949e-05 0)
(1.71246e-05 -3.31926e-05 0)
(2.69886e-05 -4.1445e-05 0)
(3.84842e-05 -4.94275e-05 0)
(5.14796e-05 -5.68923e-05 0)
(6.59019e-05 -6.35931e-05 0)
(8.17223e-05 -6.92676e-05 0)
(9.89378e-05 -7.36324e-05 0)
(0.000117575 -7.63563e-05 0)
(0.000137689 -7.7064e-05 0)
(0.000159345 -7.53353e-05 0)
(0.00018261 -7.07073e-05 0)
(0.000207574 -6.27114e-05 0)
(0.00023436 -5.09502e-05 0)
(0.000263035 -3.51484e-05 0)
(0.000293403 -1.50428e-05 0)
(0.000325897 9.51766e-06 0)
(0.000361893 3.83549e-05 0)
(0.000402548 7.15015e-05 0)
(0.00045009 0.000108013 0)
(0.000511021 0.000146872 0)
(0.000594765 0.000176128 0)
(0.000679578 0.000103729 0)
(2.84897e-07 -7.02964e-06 0)
(3.67919e-06 -2.08888e-05 0)
(9.96768e-06 -3.20371e-05 0)
(1.87368e-05 -4.24012e-05 0)
(2.9564e-05 -5.24405e-05 0)
(4.22297e-05 -6.20509e-05 0)
(5.66107e-05 -7.1055e-05 0)
(7.26411e-05 -7.92622e-05 0)
(9.02983e-05 -8.6467e-05 0)
(0.000109603 -9.24349e-05 0)
(0.000130618 -9.68823e-05 0)
(0.000153446 -9.94828e-05 0)
(0.00017822 -9.98705e-05 0)
(0.000205121 -9.76477e-05 0)
(0.000234376 -9.24162e-05 0)
(0.000266268 -8.38525e-05 0)
(0.000301118 -7.17883e-05 0)
(0.000339286 -5.61578e-05 0)
(0.000381517 -3.68321e-05 0)
(0.000429129 -1.45e-05 0)
(0.000483736 9.11296e-06 0)
(0.000547027 3.14673e-05 0)
(0.000623013 4.84578e-05 0)
(0.000716524 5.15158e-05 0)
(0.00080799 1.48562e-05 0)
(2.9982e-07 -8.94877e-06 0)
(3.94701e-06 -2.60312e-05 0)
(1.06916e-05 -3.9915e-05 0)
(2.01167e-05 -5.26021e-05 0)
(3.17851e-05 -6.46877e-05 0)
(4.54752e-05 -7.6171e-05 0)
(6.10657e-05 -8.69475e-05 0)
(7.84917e-05 -9.68871e-05 0)
(9.77356e-05 -0.00010583 0)
(0.000118829 -0.000113577 0)
(0.000141851 -0.000119885 0)
(0.000166922 -0.000124468 0)
(0.000194208 -0.000127002 0)
(0.000223934 -0.000127149 0)
(0.000256386 -0.000124586 0)
(0.000291914 -0.000119066 0)
(0.000330938 -0.000110481 0)
(0.000373953 -9.88947e-05 0)
(0.000421586 -8.45639e-05 0)
(0.000474656 -6.83017e-05 0)
(0.000533861 -5.16271e-05 0)
(0.00059904 -3.66777e-05 0)
(0.000669161 -2.54066e-05 0)
(0.000739676 -1.98882e-05 0)
(0.000791993 -2.03158e-05 0)
(3.13545e-07 -1.0986e-05 0)
(4.1559e-06 -3.15023e-05 0)
(1.12707e-05 -4.83084e-05 0)
(2.1239e-05 -6.34985e-05 0)
(3.36138e-05 -7.78093e-05 0)
(4.81692e-05 -9.13446e-05 0)
(6.47797e-05 -0.000104075 0)
(8.33773e-05 -0.000115928 0)
(0.000103943 -0.000126791 0)
(0.000126506 -0.000136511 0)
(0.000151141 -0.000144889 0)
(0.000177967 -0.000151686 0)
(0.000207147 -0.000156629 0)
(0.000238899 -0.000159432 0)
(0.000273493 -0.00015983 0)
(0.000311245 -0.00015763 0)
(0.000352507 -0.000152765 0)
(0.000397635 -0.000145355 0)
(0.000446931 -0.000135736 0)
(0.000500546 -0.000124529 0)
(0.000558144 -0.000112615 0)
(0.000618221 -0.0001007 0)
(0.000677461 -8.81229e-05 0)
(0.000729252 -7.13928e-05 0)
(0.000761175 -3.9894e-05 0)
(3.2388e-07 -1.31101e-05 0)
(4.30773e-06 -3.72217e-05 0)
(1.17048e-05 -5.71035e-05 0)
(2.20992e-05 -7.49461e-05 0)
(3.5038e-05 -9.16278e-05 0)
(5.02906e-05 -0.000107358 0)
(6.77236e-05 -0.000122179 0)
(8.72605e-05 -0.000136076 0)
(0.000108872 -0.000148984 0)
(0.000132574 -0.000160796 0)
(0.000158422 -0.000171357 0)
(0.000186511 -0.000180471 0)
(0.000216978 -0.000187912 0)
(0.000249994 -0.000193439 0)
(0.000285767 -0.000196824 0)
(0.000324517 -0.000197892 0)
(0.000366453 -0.000196554 0)
(0.000411709 -0.000192847 0)
(0.00046025 -0.000186921 0)
(0.000511715 -0.000178968 0)
(0.000565138 -0.000168997 0)
(0.000618521 -0.000156256 0)
(0.000668442 -0.000138098 0)
(0.000709695 -0.000108391 0)
(0.000735692 -5.49684e-05 0)
(3.29755e-07 -1.52945e-05 0)
(4.40418e-06 -4.31206e-05 0)
(1.19975e-05 -6.62011e-05 0)
(2.27023e-05 -8.68203e-05 0)
(3.60636e-05 -0.000105993 0)
(5.18453e-05 -0.000124031 0)
(6.99048e-05 -0.000141047 0)
(9.01525e-05 -0.000157078 0)
(0.000112543 -0.000172106 0)
(0.00013707 -0.000186063 0)
(0.000163763 -0.000198831 0)
(0.000192681 -0.000210251 0)
(0.000223911 -0.000220127 0)
(0.000257562 -0.000228244 0)
(0.000293755 -0.000234389 0)
(0.000332599 -0.000238366 0)
(0.00037415 -0.000240017 0)
(0.000418349 -0.000239219 0)
(0.000464922 -0.00023584 0)
(0.000513244 -0.000229596 0)
(0.000562162 -0.000219759 0)
(0.000609812 -0.000204594 0)
(0.000653596 -0.000180482 0)
(0.000690472 -0.000140857 0)
(0.000718108 -7.51789e-05 0)
(3.31128e-07 -1.75125e-05 0)
(4.44797e-06 -4.91315e-05 0)
(1.21557e-05 -7.55031e-05 0)
(2.30598e-05 -9.89974e-05 0)
(3.67072e-05 -0.000120758 0)
(5.28571e-05 -0.000141192 0)
(7.13564e-05 -0.000160479 0)
(9.21013e-05 -0.000178705 0)
(0.000115027 -0.000195891 0)
(0.000140103 -0.000212003 0)
(0.000167326 -0.000226954 0)
(0.000196714 -0.000240605 0)
(0.0002283 -0.00025278 0)
(0.000262127 -0.000263272 0)
(0.00029823 -0.000271856 0)
(0.000336616 -0.000278294 0)
(0.000377224 -0.000282332 0)
(0.000419866 -0.000283675 0)
(0.00046416 -0.000281917 0)
(0.000509433 -0.000276388 0)
(0.000554652 -0.000265875 0)
(0.000598421 -0.00024818 0)
(0.000639173 -0.00021953 0)
(0.000675715 -0.000174035 0)
(0.000708318 -0.000103539 0)
(3.28316e-07 -1.97388e-05 0)
(4.44337e-06 -5.51905e-05 0)
(1.21898e-05 -8.49153e-05 0)
(2.31897e-05 -0.000111357 0)
(3.6996e-05 -0.000135779 0)
(5.33646e-05 -0.000158674 0)
(7.21332e-05 -0.000180285 0)
(9.31833e-05 -0.00020074 0)
(0.000116431 -0.000220098 0)
(0.000141822 -0.00023835 0)
(0.000169319 -0.000255428 0)
(0.000198902 -0.000271211 0)
(0.000230555 -0.000285525 0)
(0.000264262 -0.00029816 0)
(0.00029999 -0.000308865 0)
(0.00033767 -0.000317352 0)
(0.000377168 -0.000323271 0)
(0.000418245 -0.000326181 0)
(0.000460515 -0.000325467 0)
(0.000503403 -0.000320209 0)
(0.000546152 -0.000308961 0)
(0.000587915 -0.000289451 0)
(0.000628035 -0.000258249 0)
(0.000666584 -0.000210567 0)
(0.000705198 -0.000140512 0)
(3.21823e-07 -2.195e-05 0)
(4.39585e-06 -6.12394e-05 0)
(1.21132e-05 -9.43514e-05 0)
(2.31153e-05 -0.00012379 0)
(3.69657e-05 -0.000150922 0)
(5.34193e-05 -0.000176325 0)
(7.23062e-05 -0.000200293 0)
(9.34953e-05 -0.000222997 0)
(0.000116886 -0.000244522 0)
(0.0001424 -0.000264883 0)
(0.000169974 -0.000284025 0)
(0.000199555 -0.000301833 0)
(0.000231088 -0.000318134 0)
(0.000264513 -0.000332703 0)
(0.000299751 -0.000345264 0)
(0.000336692 -0.000355479 0)
(0.000375174 -0.000362927 0)
(0.000414964 -0.000367061 0)
(0.000455744 -0.000367142 0)
(0.000497109 -0.000362136 0)
(0.000538617 -0.00035056 0)
(0.000579922 -0.000330309 0)
(0.000621044 -0.000298508 0)
(0.000662813 -0.00025152 0)
(0.000707442 -0.000185296 0)
(3.12195e-07 -2.41262e-05 0)
(4.31162e-06 -6.7227e-05 0)
(1.1941e-05 -0.000103735 0)
(2.28638e-05 -0.000136197 0)
(3.66579e-05 -0.000166073 0)
(5.30804e-05 -0.000194012 0)
(7.19563e-05 -0.000220358 0)
(9.31445e-05 -0.000245316 0)
(0.00011653 -0.000268997 0)
(0.000142018 -0.000291433 0)
(0.000169524 -0.000312579 0)
(0.000198969 -0.000332321 0)
(0.000230274 -0.000350483 0)
(0.00026335 -0.000366827 0)
(0.000298098 -0.000381054 0)
(0.000334393 -0.000392792 0)
(0.000372083 -0.000401574 0)
(0.00041098 -0.000406799 0)
(0.000450869 -0.000407683 0)
(0.000491531 -0.000403184 0)
(0.000532814 -0.000391915 0)
(0.000574764 -0.000372059 0)
(0.000617854 -0.000341343 0)
(0.000663299 -0.000297139 0)
(0.000713424 -0.000236821 0)
(3e-07 -2.62505e-05 0)
(4.19726e-06 -7.31101e-05 0)
(1.16895e-05 -0.000113001 0)
(2.24641e-05 -0.000148495 0)
(3.61171e-05 -0.00018113 0)
(5.24105e-05 -0.000211621 0)
(7.11673e-05 -0.000240355 0)
(9.22401e-05 -0.000267568 0)
(0.000115504 -0.000293393 0)
(0.000140851 -0.000317874 0)
(0.000168183 -0.000340975 0)
(0.000197407 -0.000362583 0)
(0.000228428 -0.000382519 0)
(0.000261148 -0.000400536 0)
(0.000295463 -0.000416321 0)
(0.000331259 -0.000429486 0)
(0.000368414 -0.000439547 0)
(0.000406806 -0.000445894 0)
(0.000446332 -0.000447758 0)
(0.000486943 -0.000444167 0)
(0.00052872 -0.000433902 0)
(0.000571984 -0.000415477 0)
(0.000617471 -0.000387174 0)
(0.000666542 -0.000347182 0)
(0.000721387 -0.000293908 0)
(2.85776e-07 -2.83095e-05 0)
(4.05937e-06 -7.88534e-05 0)
(1.1375e-05 -0.000122096 0)
(2.19451e-05 -0.000160614 0)
(3.53871e-05 -0.000196012 0)
(5.1471e-05 -0.000229061 0)
(7.00207e-05 -0.000260186 0)
(9.08857e-05 -0.000289651 0)
(0.000113936 -0.000317607 0)
(0.000139055 -0.000344112 0)
(0.000166139 -0.000369135 0)
(0.000195086 -0.000392569 0)
(0.000225799 -0.00041423 0)
(0.000258181 -0.000433872 0)
(0.000292138 -0.00045118 0)
(0.000327578 -0.000465766 0)
(0.000364425 -0.000477153 0)
(0.000402626 -0.00048476 0)
(0.000442179 -0.000487875 0)
(0.000483175 -0.00048564 0)
(0.000525861 -0.000477036 0)
(0.00057073 -0.000460898 0)
(0.000618646 -0.000435983 0)
(0.000670964 -0.000401106 0)
(0.000729642 -0.000355393 0)
(2.70187e-07 -3.02932e-05 0)
(3.90434e-06 -8.44298e-05 0)
(1.10129e-05 -0.000130976 0)
(2.13342e-05 -0.000172497 0)
(3.45095e-05 -0.00021065 0)
(5.03194e-05 -0.000246255 0)
(6.85914e-05 -0.00027977 0)
(8.91753e-05 -0.000311483 0)
(0.000111939 -0.000341562 0)
(0.000136765 -0.000370078 0)
(0.000163544 -0.000397007 0)
(0.000192177 -0.000422248 0)
(0.00022257 -0.000445622 0)
(0.000254636 -0.000466886 0)
(0.000288297 -0.000485735 0)
(0.000323494 -0.000501797 0)
(0.000360195 -0.000514624 0)
(0.00039841 -0.000523685 0)
(0.000438222 -0.000528352 0)
(0.000479824 -0.000527901 0)
(0.000523569 -0.000521515 0)
(0.000570041 -0.00050832 0)
(0.000620135 -0.000487456 0)
(0.000675121 -0.000458202 0)
(0.000736695 -0.00042017 0)
(2.53781e-07 -3.21948e-05 0)
(3.73793e-06 -8.98192e-05 0)
(1.06173e-05 -0.00013961 0)
(2.06561e-05 -0.000184101 0)
(3.35215e-05 -0.000224992 0)
(4.90067e-05 -0.000263143 0)
(6.69454e-05 -0.000299043 0)
(8.71903e-05 -0.000333 0)
(0.000109611 -0.000365198 0)
(0.00013409 -0.000395719 0)
(0.000160522 -0.000424551 0)
(0.000188811 -0.0004516 0)
(0.000218871 -0.000476697 0)
(0.000250631 -0.000499611 0)
(0.000284033 -0.000520055 0)
(0.000319049 -0.000537684 0)
(0.000355686 -0.000552094 0)
(0.000394011 -0.000562818 0)
(0.000434167 -0.000569326 0)
(0.000476412 -0.000571027 0)
(0.000521158 -0.000567294 0)
(0.00056902 -0.000557501 0)
(0.000620859 -0.000541089 0)
(0.000677824 -0.000517673 0)
(0.00074135 -0.000487183 0)
(2.36943e-07 -3.40099e-05 0)
(3.56499e-06 -9.5008e-05 0)
(1.02e-05 -0.000147973 0)
(1.9932e-05 -0.000195393 0)
(3.24551e-05 -0.000238997 0)
(4.75768e-05 -0.00027968 0)
(6.51385e-05 -0.000317955 0)
(8.49982e-05 -0.00035415 0)
(0.000107029 -0.000388464 0)
(0.000131118 -0.000420991 0)
(0.000157164 -0.000451733 0)
(0.000185079 -0.000480603 0)
(0.000214787 -0.00050745 0)
(0.000246232 -0.000532058 0)
(0.000279378 -0.000554168 0)
(0.000314223 -0.000573468 0)
(0.00035081 -0.000589608 0)
(0.000389241 -0.00060219 0)
(0.000429702 -0.000610781 0)
(0.000472487 -0.000614922 0)
(0.000518027 -0.000614151 0)
(0.000566925 -0.000608044 0)
(0.000619977 -0.000596273 0)
(0.000678189 -0.000578691 0)
(0.000742761 -0.000555432 0)
(2.2044e-07 -3.57371e-05 0)
(3.38989e-06 -9.99878e-05 0)
(9.77091e-06 -0.000156049 0)
(1.91796e-05 -0.000206348 0)
(3.13371e-05 -0.000252634 0)
(4.60658e-05 -0.000295828 0)
(6.32163e-05 -0.000336467 0)
(8.26535e-05 -0.000374893 0)
(0.000104256 -0.00041132 0)
(0.000127916 -0.000445857 0)
(0.00015354 -0.000478517 0)
(0.000181046 -0.000509229 0)
(0.000210371 -0.000537858 0)
(0.000241472 -0.000564212 0)
(0.000274333 -0.000588059 0)
(0.000308972 -0.000609131 0)
(0.000345457 -0.00062713 0)
(0.000383914 -0.000641731 0)
(0.000424551 -0.000652593 0)
(0.000467674 -0.000659373 0)
(0.000513706 -0.000661751 0)
(0.00056321 -0.000659464 0)
(0.000616899 -0.000652358 0)
(0.000675635 -0.00064045 0)
(0.000740407 -0.000623998 0)
(2.05445e-07 -3.73761e-05 0)
(3.2166e-06 -0.000104755 0)
(9.33799e-06 -0.000163828 0)
(1.84129e-05 -0.000216951 0)
(3.01887e-05 -0.000265881 0)
(4.45024e-05 -0.000311561 0)
(6.1215e-05 -0.000354546 0)
(8.01988e-05 -0.000395192 0)
(0.000101339 -0.000433729 0)
(0.000124535 -0.000470279 0)
(0.000149698 -0.000504867 0)
(0.000176755 -0.000537441 0)
(0.000205655 -0.000567883 0)
(0.000236364 -0.000596029 0)
(0.000268882 -0.000621678 0)
(0.000303242 -0.000644605 0)
(0.000339525 -0.000664564 0)
(0.000377873 -0.000681301 0)
(0.000418497 -0.000694557 0)
(0.000461694 -0.000704091 0)
(0.000507864 -0.000709699 0)
(0.000557514 -0.000711244 0)
(0.000611265 -0.000708699 0)
(0.000669841 -0.00070219 0)
(0.000734047 -0.000692052 0)
(1.92016e-07 -3.89273e-05 0)
(3.04717e-06 -0.000109309 0)
(8.90711e-06 -0.000171307 0)
(1.76429e-05 -0.000227192 0)
(2.90263e-05 -0.000278721 0)
(4.29088e-05 -0.000326857 0)
(5.91619e-05 -0.000372166 0)
(7.76661e-05 -0.000415019 0)
(9.83135e-05 -0.000455659 0)
(0.000121009 -0.000494219 0)
(0.000145671 -0.000530742 0)
(0.000172235 -0.000565192 0)
(0.000200656 -0.000597473 0)