/*--------------------------------*- C++ -*----------------------------------*\
  =========                 |
  \\      /  F ield         | OpenFOAM: The Open Source CFD Toolbox
   \\    /   O peration     | Website:  https://openfoam.org
    \\  /    A nd           | Version:  13
     \\/     M anipulation  |
\*---------------------------------------------------------------------------*/
FoamFile
{
    format      ascii;
    class       volScalarField;
    location    "8";
    object      p;
}
// * * * * * * * * * * * * * * * * * * * * * * * * * * * * * * * * * * * * * //

dimensions      [0 2 -2 0 0 0 0];

internalField   nonuniform List<scalar> 
6440
(
136.098
136.101
136.102
136.099
136.091
136.077
136.058
136.034
136.005
135.972
135.936
135.898
135.858
135.819
135.783
135.752
135.729
135.715
135.712
135.719
135.732
135.748
135.759
135.765
135.767
136.095
136.097
136.096
136.091
136.081
136.065
136.044
136.017
135.986
135.951
135.912
135.871
135.829
135.788
135.751
135.719
135.695
135.683
135.68
135.69
135.709
135.733
135.756
135.769
135.769
136.09
136.09
136.087
136.078
136.065
136.047
136.024
135.995
135.962
135.923
135.88
135.835
135.789
135.744
135.704
135.67
135.644
135.63
135.627
135.636
135.654
135.68
135.705
135.725
135.718
136.083
136.081
136.074
136.064
136.048
136.028
136.002
135.97
135.931
135.886
135.836
135.781
135.725
135.671
135.623
135.583
135.554
135.539
135.537
135.547
135.567
135.59
135.612
135.629
135.609
136.076
136.072
136.063
136.05
136.033
136.01
135.981
135.944
135.898
135.844
135.782
135.713
135.641
135.57
135.506
135.454
135.417
135.399
135.402
135.42
135.446
135.471
135.488
135.506
135.481
136.075
136.069
136.057
136.04
136.019
135.993
135.959
135.916
135.862
135.797
135.72
135.632
135.537
135.44
135.35
135.275
135.223
135.199
135.207
135.241
135.285
135.323
135.348
135.37
135.349
136.084
136.075
136.058
136.036
136.01
135.977
135.935
135.884
135.82
135.741
135.645
135.532
135.405
135.272
135.145
135.038
134.962
134.93
134.949
135.01
135.085
135.152
135.197
135.244
135.236
136.106
136.092
136.07
136.041
136.007
135.965
135.914
135.85
135.771
135.673
135.551
135.403
135.232
135.046
134.865
134.716
134.618
134.59
134.637
134.741
134.865
134.978
135.068
135.151
135.177
136.14
136.121
136.093
136.057
136.014
135.963
135.899
135.821
135.723
135.598
135.439
135.242
135.008
134.749
134.494
134.294
134.189
134.195
134.306
134.479
134.667
134.842
134.987
135.133
135.211
136.18
136.158
136.125
136.082
136.031
135.97
135.896
135.802
135.682
135.526
135.325
135.071
134.763
134.418
134.083
133.839
133.752
133.82
134.02
134.279
134.541
134.783
135.002
135.228
135.377
136.216
136.193
136.156
136.109
136.052
135.983
135.899
135.792
135.653
135.47
135.228
134.918
134.543
134.135
133.758
133.522
133.481
133.61
133.884
134.208
134.535
134.846
135.138
135.458
135.674
136.241
136.218
136.18
136.129
136.068
135.993
135.902
135.787
135.634
135.43
135.159
134.81
134.389
133.943
133.566
133.382
133.404
133.607
133.961
134.339
134.707
135.059
135.404
135.778
136.023
136.252
136.228
136.187
136.133
136.068
135.99
135.895
135.773
135.613
135.4
135.118
134.759
134.331
133.885
133.536
133.411
133.518
133.829
134.249
134.653
135.033
135.388
135.729
136.093
136.303
136.245
136.217
136.171
136.112
136.042
135.961
135.861
135.736
135.574
135.363
135.091
134.754
134.365
133.972
133.685
133.627
133.807
134.18
134.64
135.061
135.433
135.76
136.046
136.319
136.467
136.208
136.177
136.127
136.062
135.986
135.896
135.79
135.659
135.496
135.294
135.046
134.758
134.445
134.146
133.949
133.962
134.209
134.612
135.082
135.511
135.859
136.126
136.313
136.456
136.547
136.134
136.102
136.048
135.978
135.893
135.793
135.675
135.533
135.364
135.168
134.948
134.719
134.497
134.318
134.234
134.328
134.63
135.075
135.551
135.971
136.273
136.458
136.523
136.556
136.609
136.031
135.997
135.94
135.863
135.767
135.653
135.519
135.36
135.179
134.977
134.779
134.593
134.458
134.377
134.419
134.615
134.986
135.468
135.982
136.405
136.651
136.741
136.702
136.657
136.682
135.913
135.879
135.818
135.732
135.621
135.49
135.334
135.155
134.952
134.746
134.549
134.405
134.321
134.348
134.473
134.752
135.15
135.654
136.199
136.66
136.925
136.97
136.884
136.763
136.771
135.803
135.768
135.702
135.606
135.483
135.33
135.152
134.948
134.728
134.509
134.327
134.204
134.181
134.263
134.476
134.797
135.217
135.693
136.164
136.607
136.926
137.017
136.941
136.83
136.786
135.715
135.68
135.609
135.506
135.37
135.204
135.009
134.787
134.548
134.32
134.143
134.054
134.073
134.224
134.487
134.834
135.237
135.677
136.109
136.49
136.756
136.895
136.884
136.677
136.636
135.653
135.62
135.545
135.441
135.304
135.135
134.937
134.713
134.473
134.245
134.071
133.986
134.016
134.187
134.489
134.87
135.272
135.678
136.074
136.425
136.721
136.96
137.1
136.92
136.831
135.609
135.58
135.509
135.411
135.281
135.122
134.935
134.726
134.503
134.29
134.121
134.02
134.01
134.139
134.425
134.822
135.238
135.628
136.004
136.341
136.63
136.886
137.099
137.207
137.3
135.579
135.559
135.495
135.404
135.292
135.153
134.991
134.81
134.615
134.419
134.245
134.12
134.094
134.212
134.476
134.846
135.25
135.625
135.981
136.312
136.59
136.807
136.967
137.099
137.223
135.547
135.542
135.49
135.415
135.321
135.209
135.081
134.937
134.785
134.632
134.491
134.393
134.36
134.432
134.621
134.926
135.308
135.662
135.976
136.273
136.531
136.732
136.882
136.993
137.066
135.515
135.516
135.484
135.427
135.357
135.273
135.179
135.077
134.97
134.865
134.774
134.703
134.681
134.725
134.856
135.081
135.376
135.673
135.949
136.211
136.44
136.611
136.728
136.811
136.86
135.482
135.479
135.467
135.436
135.387
135.331
135.269
135.204
135.138
135.077
135.021
134.984
134.966
134.987
135.064
135.21
135.423
135.672
135.918
136.144
136.334
136.47
136.56
136.619
136.655
135.449
135.444
135.444
135.432
135.408
135.376
135.342
135.307
135.275
135.247
135.228
135.209
135.202
135.211
135.254
135.349
135.506
135.705
135.905
136.08
136.221
136.322
136.386
136.43
136.449
135.423
135.42
135.421
135.421
135.412
135.403
135.395
135.387
135.382
135.382
135.385
135.395
135.396
135.4
135.422
135.483
135.59
135.731
135.879
136.012
136.115
136.187
136.233
136.256
136.266
135.404
135.406
135.403
135.402
135.404
135.41
135.422
135.438
135.457
135.481
135.509
135.529
135.539
135.538
135.546
135.583
135.654
135.751
135.853
135.947
136.025
136.076
136.1
136.111
136.102
135.39
135.396
135.39
135.386
135.388
135.401
135.423
135.456
135.497
135.541
135.578
135.605
135.613
135.611
135.616
135.643
135.694
135.763
135.835
135.901
135.952
135.979
135.986
135.975
135.956
135.363
135.374
135.37
135.367
135.371
135.383
135.408
135.448
135.502
135.559
135.603
135.623
135.63
135.634
135.646
135.675
135.718
135.768
135.817
135.857
135.881
135.886
135.874
135.853
135.81
135.314
135.32
135.319
135.327
135.337
135.35
135.373
135.412
135.469
135.53
135.572
135.593
135.604
135.618
135.642
135.678
135.718
135.754
135.782
135.799
135.802
135.79
135.765
135.717
135.65
135.25
135.248
135.253
135.264
135.276
135.29
135.311
135.34
135.378
135.421
135.463
135.494
135.519
135.55
135.593
135.641
135.683
135.712
135.727
135.728
135.715
135.685
135.635
135.566
135.463
135.212
135.201
135.199
135.201
135.211
135.216
135.208
135.187
135.173
135.199
135.268
135.327
135.371
135.427
135.495
135.562
135.612
135.642
135.652
135.641
135.611
135.559
135.487
135.386
135.266
135.248
135.222
135.195
135.173
135.156
135.125
135.061
134.977
134.926
134.955
135.025
135.102
135.176
135.263
135.36
135.448
135.512
135.547
135.552
135.531
135.484
135.414
135.32
135.209
135.076
135.358
135.316
135.257
135.205
135.154
135.071
134.95
134.821
134.741
134.747
134.801
134.883
134.978
135.091
135.213
135.318
135.392
135.43
135.433
135.403
135.345
135.264
135.163
135.042
134.906
135.491
135.443
135.376
135.303
135.206
135.066
134.882
134.694
134.614
134.606
134.649
134.724
134.816
134.941
135.077
135.19
135.267
135.306
135.306
135.272
135.209
135.123
135.016
134.892
134.745
135.609
135.567
135.501
135.404
135.267
135.064
134.817
134.628
134.569
134.564
134.596
134.641
134.715
134.835
134.97
135.08
135.154
135.188
135.185
135.148
135.082
134.992
134.881
134.747
134.593
135.702
135.674
135.605
135.492
135.315
135.073
134.809
134.666
134.607
134.619
134.631
134.638
134.679
134.779
134.901
134.998
135.061
135.086
135.076
135.034
134.964
134.869
134.751
134.612
134.447
135.803
135.778
135.705
135.573
135.379
135.132
134.897
134.782
134.741
134.747
134.726
134.692
134.702
134.774
134.87
134.948
134.994
135.005
134.984
134.933
134.857
134.756
134.632
134.485
134.314
135.919
135.893
135.814
135.673
135.481
135.262
135.077
134.965
134.937
134.913
134.853
134.795
134.776
134.814
134.878
134.928
134.954
134.946
134.91
134.848
134.763
134.655
134.524
134.372
134.195
136.031
136.012
135.943
135.81
135.645
135.468
135.323
135.222
135.171
135.109
135.024
134.941
134.891
134.893
134.92
134.939
134.938
134.909
134.854
134.779
134.684
134.569
134.432
134.273
134.091
136.12
136.116
136.076
135.978
135.856
135.72
135.6
135.511
135.438
135.352
135.244
135.126
135.037
134.997
134.986
134.975
134.943
134.888
134.815
134.727
134.621
134.498
134.354
134.19
134.003
136.164
136.167
136.163
136.122
136.045
135.958
135.873
135.801
135.727
135.628
135.485
135.322
135.19
135.11
135.06
135.019
134.957
134.879
134.79
134.689
134.573
134.441
134.291
134.122
133.93
136.182
136.165
136.169
136.182
136.176
136.15
136.127
136.085
136.01
135.881
135.695
135.493
135.333
135.219
135.132
135.06
134.975
134.88
134.777
134.664
134.539
134.399
134.243
134.068
133.873
136.205
136.16
136.143
136.185
136.252
136.309
136.35
136.32
136.216
136.047
135.834
135.625
135.453
135.314
135.201
135.104
135
134.89
134.774
134.65
134.516
134.369
134.207
134.029
133.831
136.23
136.172
136.137
136.187
136.311
136.422
136.474
136.422
136.291
136.113
135.912
135.715
135.545
135.394
135.266
135.148
135.027
134.905
134.778
134.646
134.504
134.351
134.186
134.003
133.805
136.253
136.185
136.137
136.191
136.331
136.453
136.479
136.412
136.281
136.119
135.945
135.775
135.612
135.459
135.32
135.186
135.054
134.923
134.789
134.65
134.502
134.345
134.175
133.993
133.793
136.293
136.206
136.122
136.146
136.252
136.356
136.387
136.343
136.24
136.106
135.953
135.806
135.657
135.503
135.358
135.218
135.081
134.944
134.805
134.66
134.508
134.348
134.177
133.993
133.795
136.344
136.227
136.078
136.058
136.124
136.213
136.267
136.262
136.192
136.079
135.948
135.812
135.672
135.53
135.387
135.245
135.106
134.966
134.823
134.676
134.522
134.36
134.187
134.005
133.808
136.361
136.222
136.063
136.033
136.066
136.126
136.183
136.195
136.14
136.041
135.929
135.809
135.68
135.545
135.407
135.268
135.129
134.988
134.844
134.695
134.54
134.378
134.207
134.024
133.832
136.348
136.227
136.112
136.067
136.092
136.12
136.148
136.148
136.093
136.01
135.909
135.797
135.68
135.554
135.422
135.287
135.15
135.009
134.866
134.717
134.563
134.401
134.23
134.052
133.861
136.343
136.264
136.204
136.169
136.183
136.169
136.157
136.126
136.067
135.987
135.892
135.79
135.679
135.559
135.433
135.303
135.168
135.03
134.887
134.74
134.587
134.427
134.26
134.082
133.898
136.367
136.333
136.31
136.305
136.295
136.239
136.188
136.127
136.06
135.979
135.885
135.785
135.678
135.564
135.443
135.317
135.185
135.049
134.909
134.764
134.614
134.457
134.291
134.12
133.937
136.411
136.42
136.41
136.407
136.374
136.302
136.224
136.142
136.065
135.979
135.884
135.786
135.681
135.571
135.453
135.33
135.202
135.07
134.932
134.79
134.642
134.488
134.328
134.158
133.982
136.445
136.479
136.484
136.473
136.426
136.351
136.251
136.16
136.074
135.984
135.889
135.79
135.688
135.58
135.466
135.346
135.221
135.091
134.957
134.817
134.673
134.522
134.365
134.202
134.03
136.448
136.485
136.512
136.505
136.457
136.374
136.263
136.172
136.083
135.991
135.897
135.8
135.698
135.592
135.48
135.363
135.241
135.114
134.983
134.847
134.706
134.559
134.408
134.247
134.083
136.425
136.447
136.481
136.487
136.457
136.37
136.266
136.177
136.089
136
135.908
135.811
135.712
135.607
135.498
135.383
135.264
135.14
135.012
134.879
134.742
134.599
134.45
134.298
134.137
136.396
136.397
136.419
136.445
136.429
136.349
136.267
136.182
136.097
136.01
135.919
135.826
135.727
135.624
135.517
135.405
135.289
135.168
135.043
134.913
134.779
134.64
134.498
134.348
134.195
136.39
136.379
136.377
136.404
136.394
136.329
136.264
136.186
136.105
136.021
135.934
135.84
135.744
135.643
135.538
135.428
135.314
135.197
135.075
134.948
134.818
134.684
134.544
134.402
134.252
136.416
136.397
136.383
136.394
136.368
136.322
136.263
136.192
136.115
136.034
135.947
135.858
135.762
135.663
135.559
135.452
135.341
135.226
135.107
134.984
134.858
134.727
134.593
134.453
134.312
136.461
136.438
136.428
136.412
136.372
136.332
136.271
136.202
136.128
136.048
135.964
135.874
135.781
135.683
135.582
135.477
135.368
135.256
135.14
135.02
134.897
134.771
134.64
134.508
134.368
136.525
136.495
136.489
136.455
136.401
136.352
136.286
136.216
136.142
136.063
135.979
135.892
135.8
135.704
135.604
135.501
135.395
135.286
135.173
135.057
134.937
134.814
134.689
134.558
134.427
136.601
136.578
136.565
136.505
136.443
136.377
136.306
136.233
136.158
136.079
135.997
135.909
135.819
135.725
135.627
135.526
135.422
135.316
135.206
135.093
134.977
134.858
134.735
134.612
134.483
136.677
136.668
136.638
136.553
136.483
136.404
136.328
136.253
136.176
136.097
136.014
135.929
135.839
135.746
135.65
135.551
135.45
135.346
135.239
135.129
135.016
134.901
134.784
134.661
134.54
136.739
136.741
136.696
136.588
136.516
136.431
136.35
136.273
136.194
136.114
136.033
135.947
135.859
135.768
135.674
135.577
135.477
135.376
135.272
135.165
135.056
134.944
134.829
134.715
134.595
136.778
136.787
136.729
136.619
136.538
136.453
136.37
136.291
136.212
136.132
136.049
135.966
135.879
135.789
135.697
135.602
135.505
135.406
135.304
135.2
135.094
134.986
134.877
134.764
134.652
136.798
136.809
136.74
136.642
136.559
136.472
136.388
136.308
136.228
136.148
136.067
135.983
135.898
135.81
135.72
135.627
135.532
135.435
135.336
135.235
135.133
135.028
134.921
134.816
134.705
136.803
136.817
136.738
136.659
136.572
136.486
136.403
136.323
136.243
136.164
136.082
136.001
135.917
135.83
135.742
135.651
135.558
135.464
135.368
135.27
135.17
135.069
134.968
134.862
134.759
136.805
136.822
136.73
136.663
136.581
136.496
136.415
136.335
136.256
136.177
136.098
136.017
135.934
135.85
135.763
135.674
135.583
135.492
135.398
135.303
135.206
135.109
135.009
134.911
134.809
136.814
136.827
136.722
136.665
136.585
136.504
136.424
136.345
136.267
136.19
136.11
136.032
135.951
135.867
135.782
135.696
135.608
135.518
135.427
135.335
135.241
135.147
135.052
134.954
134.859
136.838
136.835
136.725
136.665
136.588
136.508
136.43
136.353
136.276
136.199
136.123
136.044
135.965
135.884
135.801
135.716
135.63
135.543
135.455
135.365
135.275
135.183
135.09
134.999
134.904
136.862
136.841
136.733
136.665
136.588
136.51
136.434
136.358
136.282
136.207
136.131
136.056
135.978
135.899
135.818
135.735
135.652
135.567
135.481
135.394
135.306
135.218
135.129
135.038
134.95
136.879
136.84
136.74
136.662
136.586
136.508
136.434
136.359
136.286
136.212
136.139
136.064
135.989
135.912
135.833
135.752
135.671
135.589
135.505
135.421
135.336
135.25
135.163
135.079
134.991
136.88
136.826
136.735
136.655
136.578
136.503
136.431
136.359
136.287
136.216
136.144
136.072
135.998
135.923
135.846
135.768
135.689
135.609
135.528
135.446
135.364
135.28
135.198
135.113
135.031
136.865
136.798
136.718
136.638
136.566
136.494
136.424
136.355
136.286
136.217
136.148
136.077
136.005
135.932
135.857
135.782
135.705
135.627
135.549
135.469
135.389
135.309
135.228
135.149
135.068
136.827
136.757
136.689
136.617
136.548
136.481
136.415
136.348
136.282
136.216
136.148
136.081
136.011
135.94
135.867
135.794
135.719
135.644
135.568
135.491
135.413
135.336
135.259
135.18
135.104
136.776
136.712
136.655
136.588
136.527
136.464
136.402
136.34
136.277
136.213
136.149
136.082
136.015
135.946
135.876
135.804
135.732
135.659
135.585
135.51
135.436
135.361
135.285
135.212
135.136
136.718
136.665
136.615
136.558
136.501
136.444
136.387
136.328
136.269
136.208
136.145
136.083
136.017
135.951
135.882
135.813
135.743
135.672
135.6
135.528
135.456
135.383
135.311
135.238
135.167
136.661
136.617
136.575
136.524
136.475
136.422
136.369
136.314
136.258
136.2
136.142
136.08
136.018
135.953
135.887
135.82
135.752
135.683
135.614
135.544
135.474
135.404
135.333
135.265
135.194
136.606
136.57
136.534
136.491
136.445
136.398
136.349
136.298
136.246
136.191
136.134
136.076
136.016
135.954
135.89
135.825
135.759
135.693
135.625
135.558
135.49
135.422
135.355
135.286
135.22
136.555
136.525
136.495
136.455
136.416
136.373
136.328
136.281
136.231
136.179
136.126
136.069
136.012
135.952
135.89
135.828
135.764
135.7
135.635
135.569
135.503
135.438
135.371
135.308
135.242
136.507
136.482
136.456
136.422
136.386
136.347
136.306
136.262
136.215
136.167
136.115
136.062
136.006
135.948
135.889
135.828
135.767
135.705
135.642
135.578
135.515
135.451
135.388
135.324
135.263
136.464
136.442
136.42
136.389
136.357
136.321
136.283
136.242
136.198
136.152
136.103
136.051
135.998
135.943
135.886
135.827
135.768
135.708
135.647
135.586
135.524
135.462
135.4
135.341
135.28
136.423
136.405
136.386
136.358
136.329
136.296
136.261
136.223
136.181
136.137
136.09
136.041
135.99
135.936
135.881
135.825
135.768
135.71
135.651
135.591
135.531
135.471
135.413
135.353
135.295
136.387
136.371
136.354
136.328
136.303
136.272
136.24
136.204
136.165
136.122
136.078
136.03
135.981
135.929
135.876
135.822
135.766
135.71
135.653
135.595
135.537
135.48
135.422
135.366
135.309
136.354
136.34
136.324
136.302
136.278
136.25
136.22
136.186
136.149
136.108
136.065
136.02
135.972
135.922
135.87
135.818
135.764
135.71
135.654
135.599
135.542
135.486
135.431
135.375
135.321
136.323
136.311
136.298
136.277
136.256
136.229
136.201
136.168
136.133
136.094
136.053
136.009
135.963
135.914
135.865
135.814
135.762
135.709
135.655
135.601
135.547
135.493
135.438
135.386
135.332
136.295
136.285
136.273
136.254
136.234
136.209
136.183
136.152
136.118
136.081
136.04
135.998
135.953
135.907
135.859
135.809
135.759
135.707
135.655
135.603
135.55
135.498
135.446
135.393
135.342
136.27
136.26
136.25
136.232
136.214
136.19
136.165
136.135
136.102
136.066
136.028
135.987
135.944
135.899
135.852
135.804
135.755
135.705
135.655
135.604
135.553
135.502
135.451
135.401
135.35
136.246
136.238
136.229
136.212
136.194
136.171
136.147
136.118
136.086
136.052
136.015
135.975
135.934
135.89
135.845
135.799
135.751
135.703
135.654
135.604
135.554
135.505
135.455
135.406
135.356
136.225
136.217
136.208
136.192
136.175
136.152
136.128
136.1
136.07
136.036
136.001
135.962
135.923
135.881
135.837
135.792
135.746
135.699
135.651
135.603
135.554
135.506
135.457
135.409
135.361
136.205
136.197
136.189
136.172
136.155
136.133
136.109
136.082
136.052
136.02
135.985
135.949
135.91
135.87
135.828
135.784
135.739
135.693
135.647
135.6
135.553
135.505
135.458
135.41
135.363
136.188
136.179
136.171
136.154
136.137
136.114
136.09
136.063
136.034
136.003
135.969
135.934
135.897
135.858
135.817
135.775
135.731
135.687
135.641
135.596
135.549
135.503
135.456
135.41
135.363
136.173
136.164
136.155
136.137
136.119
136.096
136.071
136.044
136.016
135.985
135.953
135.918
135.882
135.845
135.805
135.764
135.722
135.679
135.635
135.59
135.544
135.499
135.453
135.407
135.361
136.162
136.151
136.142
136.122
136.102
136.079
136.053
136.027
135.998
135.968
135.936
135.903
135.868
135.831
135.793
135.753
135.712
135.67
135.627
135.583
135.539
135.494
135.448
135.403
135.357
136.152
136.141
136.132
136.11
136.089
136.064
136.038
136.011
135.983
135.953
135.922
135.889
135.855
135.819
135.782
135.743
135.703
135.662
135.619
135.576
135.532
135.488
135.443
135.398
135.353
136.152
136.136
136.128
136.104
136.08
136.054
136.027
135.999
135.97
135.941
135.91
135.878
135.844
135.809
135.772
135.734
135.695
135.654
135.613
135.57
135.527
135.483
135.439
135.394
135.35
136.185
136.15
136.132
136.104
136.076
136.048
136.02
135.991
135.963
135.933
135.902
135.87
135.837
135.802
135.766
135.728
135.689
135.649
135.608
135.566
135.523
135.479
135.435
135.391
135.347
136.259
136.179
136.136
136.104
136.074
136.046
136.017
135.989
135.96
135.93
135.899
135.867
135.834
135.799
135.763
135.726
135.687
135.647
135.606
135.564
135.521
135.478
135.434
135.39
135.346
137.388
137.39
137.392
137.395
137.398
137.401
137.404
137.407
137.409
137.413
137.418
137.429
137.44
137.451
137.456
137.454
137.439
137.418
137.395
137.385
137.389
137.399
137.407
137.409
137.408
137.384
137.387
137.39
137.394
137.397
137.401
137.404
137.408
137.412
137.415
137.419
137.425
137.433
137.44
137.445
137.443
137.431
137.413
137.394
137.383
137.384
137.392
137.402
137.407
137.407
137.376
137.379
137.384
137.389
137.393
137.398
137.4
137.397
137.387
137.37
137.352
137.337
137.329
137.329
137.337
137.348
137.359
137.368
137.374
137.38
137.388
137.398
137.405
137.407
137.406
137.365
137.369
137.373
137.378
137.384
137.386
137.377
137.347
137.299
137.241
137.181
137.129
137.099
137.094
137.106
137.132
137.171
137.222
137.278
137.332
137.375
137.401
137.411
137.41
137.407
137.355
137.357
137.36
137.365
137.369
137.363
137.328
137.257
137.16
137.055
136.952
136.866
136.81
136.787
136.793
136.822
136.883
136.974
137.078
137.188
137.289
137.365
137.404
137.409
137.404
137.345
137.345
137.348
137.352
137.354
137.334
137.266
137.152
137.01
136.861
136.721
136.601
136.515
136.47
136.468
136.505
136.582
136.693
136.829
136.979
137.128
137.261
137.359
137.399
137.396
137.335
137.334
137.337
137.342
137.342
137.309
137.213
137.064
136.884
136.697
136.521
136.371
136.259
136.195
136.18
136.214
136.296
136.422
136.581
136.758
136.94
137.112
137.266
137.368
137.386
137.325
137.324
137.326
137.331
137.333
137.298
137.189
137.017
136.809
136.59
136.383
136.205
136.069
135.986
135.957
135.977
136.055
136.188
136.362
136.56
136.764
136.959
137.142
137.292
137.353
137.319
137.314
137.313
137.317
137.322
137.297
137.194
137.02
136.802
136.561
136.329
136.127
135.971
135.87
135.828
135.829
135.891
136.023
136.206
136.419
136.637
136.847
137.039
137.199
137.289
137.319
137.31
137.301
137.298
137.303
137.296
137.22
137.064
136.85
136.605
136.358
136.137
135.964
135.849
135.798
135.798
135.841
135.961
136.145
136.364
136.59
136.806
136.998
137.155
137.244
137.327
137.317
137.299
137.283
137.279
137.284
137.25
137.136
136.95
136.725
136.481
136.247
136.052
135.914
135.838
135.829
135.874
135.994
136.181
136.405
136.635
136.849
137.034
137.177
137.264
137.338
137.329
137.308
137.28
137.267
137.273
137.279
137.228
137.096
136.905
136.681
136.451
136.246
136.089
135.996
135.973
136.017
136.132
136.313
136.533
136.76
136.971
137.149
137.28
137.366
137.342
137.335
137.318
137.289
137.27
137.28
137.306
137.311
137.248
137.111
136.923
136.714
136.516
136.353
136.249
136.213
136.249
136.354
136.522
136.73
136.949
137.153
137.326
137.452
137.529
137.334
137.328
137.313
137.295
137.285
137.297
137.335
137.375
137.376
137.305
137.168
136.99
136.807
136.649
136.54
136.496
136.52
136.612
136.766
136.96
137.168
137.364
137.53
137.65
137.717
137.312
137.307
137.294
137.28
137.279
137.306
137.356
137.409
137.446
137.438
137.365
137.236
137.081
136.932
136.826
136.778
136.788
136.866
137.004
137.182
137.377
137.565
137.725
137.841
137.899
137.286
137.284
137.271
137.257
137.255
137.283
137.344
137.411
137.46
137.479
137.451
137.375
137.266
137.15
137.058
137.013
137.017
137.078
137.2
137.361
137.54
137.717
137.871
137.985
138.043
137.265
137.267
137.255
137.241
137.235
137.252
137.303
137.373
137.436
137.47
137.463
137.411
137.328
137.24
137.168
137.134
137.145
137.206
137.315
137.46
137.625
137.792
137.941
138.053
138.108
137.257
137.263
137.25
137.231
137.219
137.225
137.263
137.322
137.378
137.412
137.413
137.38
137.323
137.256
137.201
137.174
137.189
137.248
137.35
137.484
137.639
137.797
137.941
138.05
138.104
137.243
137.266
137.249
137.228
137.208
137.202
137.224
137.266
137.309
137.337
137.341
137.319
137.276
137.226
137.185
137.169
137.188
137.246
137.341
137.464
137.605
137.75
137.884
137.989
138.042
137.232
137.289
137.26
137.231
137.202
137.182
137.184
137.204
137.228
137.244
137.244
137.225
137.192
137.154
137.125
137.117
137.14
137.199
137.29
137.405
137.533
137.662
137.779
137.87
137.914
137.159
137.241
137.24
137.204
137.154
137.12
137.11
137.117
137.128
137.131
137.122
137.099
137.066
137.033
137.01
137.008
137.035
137.095
137.185
137.295
137.414
137.528
137.626
137.699
137.729
137.329
137.232
137.193
137.139
137.074
137.028
137.004
136.994
136.986
136.972
136.948
136.915
136.879
136.845
136.824
136.824
136.853
136.912
136.998
137.104
137.215
137.318
137.4
137.459
137.487
137.234
137.143
137.073
137.008
136.941
136.889
136.854
136.828
136.801
136.769
136.729
136.684
136.637
136.597
136.57
136.564
136.584
136.632
136.706
136.796
136.893
136.98
137.047
137.091
137.108
137.062
136.994
136.918
136.845
136.774
136.713
136.664
136.618
136.569
136.515
136.455
136.391
136.328
136.272
136.228
136.204
136.203
136.227
136.272
136.333
136.397
136.454
136.491
136.512
136.526
136.86
136.81
136.736
136.657
136.579
136.506
136.436
136.367
136.294
136.214
136.13
136.043
135.955
135.872
135.798
135.739
135.697
135.674
135.667
135.667
135.667
135.656
135.624
135.578
135.514
136.652
136.608
136.538
136.454
136.365
136.273
136.18
136.083
135.982
135.874
135.761
135.642
135.521
135.399
135.278
135.162
135.054
134.952
134.853
134.749
134.626
134.478
134.302
134.121
134.012
136.442
136.403
136.333
136.242
136.136
136.021
135.901
135.775
135.643
135.505
135.357
135.201
135.034
134.859
134.672
134.476
134.269
134.047
133.803
133.52
133.181
132.767
132.264
131.701
131.076
136.251
136.207
136.128
136.022
135.895
135.755
135.607
135.451
135.287
135.112
134.924
134.721
134.499
134.255
133.984
133.682
133.341
132.95
132.491
131.935
131.234
130.352
129.223
127.943
126.41
136.077
136.018
135.921
135.793
135.643
135.477
135.3
135.113
134.913
134.699
134.464
134.205
133.916
133.588
133.214
132.78
132.269
131.658
130.904
129.949
128.682
126.985
124.518
121.288
115.422
135.911
135.828
135.707
135.554
135.378
135.187
134.982
134.763
134.525
134.266
133.979
133.655
133.288
132.864
132.369
131.779
131.063
130.18
129.05
127.565
125.491
122.614
117.896
112.264
94.0768
135.739
135.627
135.479
135.302
135.104
134.89
134.658
134.405
134.127
133.82
133.474
133.082
132.629
132.098
131.466
130.702
129.755
128.558
126.989
124.868
121.737
117.113
107.858
92.3272
35.6935
135.546
135.407
135.238
135.043
134.828
134.593
134.334
134.047
133.728
133.37
132.965
132.498
131.954
131.31
130.535
129.586
128.398
126.876
124.858
122.103
118.052
111.99
101.431
84.2836
55.4088
135.333
135.177
134.995
134.789
134.56
134.303
134.016
133.695
133.335
132.927
132.46
131.919
131.282
130.522
129.602
128.47
127.048
125.222
122.814
119.555
114.987
108.447
98.9943
84.9375
67.9848
135.122
134.956
134.766
134.549
134.303
134.024
133.71
133.355
132.953
132.495
131.968
131.353
130.626
129.755
128.697
127.392
125.755
123.662
120.93
117.294
112.367
105.598
96.3323
83.3963
66.883
134.926
134.752
134.552
134.321
134.057
133.756
133.414
133.027
132.586
132.081
131.497
130.814
130.004
129.03
127.846
126.387
124.561
122.238
119.236
115.295
110.06
103.044
93.6816
81.2149
65.4873
134.746
134.562
134.348
134.102
133.82
133.498
133.132
132.715
132.239
131.693
131.059
130.315
129.431
128.369
127.077
125.487
123.502
120.99
117.764
113.571
108.071
100.821
91.3381
79.0612
63.8435
134.575
134.379
134.152
133.891
133.594
133.254
132.867
132.426
131.92
131.339
130.662
129.868
128.924
127.789
126.411
124.717
122.608
119.948
116.547
112.145
106.403
98.8715
89.066
76.39
60.782
134.412
134.204
133.966
133.694
133.383
133.029
132.625
132.164
131.636
131.026
130.317
129.483
128.494
127.307
125.866
124.1
121.906
119.143
115.612
111.051
105.089
97.2403
86.9629
73.3844
56.578
134.258
134.041
133.794
133.513
133.193
132.828
132.411
131.935
131.389
130.76
130.028
129.169
128.152
126.934
125.46
123.657
121.42
118.605
114.997
110.323
104.131
95.9249
84.9423
69.9247
51.1729
134.117
133.894
133.64
133.352
133.024
132.651
132.226
131.741
131.185
130.544
129.801
128.932
127.904
126.679
125.202
123.401
121.173
118.373
114.768
110.066
103.659
95.028
82.4854
65.0638
41.5088
133.992
133.763
133.504
133.211
132.879
132.501
132.072
131.583
131.023
130.38
129.637
128.771
127.752
126.543
125.094
123.339
121.18
118.48
115.018
110.489
104.218
95.5443
81.3572
61.1239
23.3918
133.884
133.65
133.387
133.091
132.757
132.378
131.949
131.461
130.904
130.268
129.534
128.685
127.691
126.52
125.128
123.458
121.426
118.915
115.745
111.657
106.147
98.602
86.3354
68.2923
18.0611
133.792
133.555
133.289
132.992
132.658
132.281
131.855
131.373
130.826
130.203
129.49
128.667
127.714
126.599
125.289
123.734
121.872
119.611
116.825
113.336
108.868
103.087
95.1774
85.4891
65.9828
133.716
133.477
133.21
132.913
132.581
132.208
131.79
131.318
130.786
130.183
129.496
128.712
127.809
126.764
125.551
124.133
122.464
120.482
118.106
115.234
111.736
107.463
102.211
95.9976
88.2728
133.656
133.416
133.15
132.855
132.527
132.161
131.752
131.294
130.78
130.202
129.55
128.808
127.964
126.999
125.892
124.619
123.149
121.444
119.46
117.151
114.474
111.417
108.03
104.588
101.668
133.613
133.373
133.109
132.817
132.495
132.138
131.741
131.299
130.807
130.258
129.641
128.95
128.168
127.285
126.287
125.159
123.881
122.434
120.798
118.959
116.922
114.721
112.453
110.354
108.798
133.587
133.348
133.087
132.801
132.486
132.138
131.755
131.332
130.864
130.345
129.769
129.126
128.41
127.61
126.719
125.727
124.625
123.406
122.064
120.607
119.054
117.457
115.918
114.612
113.766
133.576
133.341
133.084
132.804
132.498
132.162
131.794
131.391
130.948
130.461
129.924
129.334
128.681
127.96
127.169
126.301
125.356
124.331
123.233
122.072
120.88
119.702
118.622
117.755
117.229
133.581
133.349
133.098
132.826
132.529
132.207
131.855
131.472
131.055
130.6
130.105
129.563
128.971
128.325
127.624
126.868
126.057