/*--------------------------------*- C++ -*----------------------------------*\
  =========                 |
  \\      /  F ield         | OpenFOAM: The Open Source CFD Toolbox
   \\    /   O peration     | Website:  https://openfoam.org
    \\  /    A nd           | Version:  13
     \\/     M anipulation  |
\*---------------------------------------------------------------------------*/
FoamFile
{
    format      ascii;
    class       volScalarField;
    location    "8";
    object      p;
}
// * * * * * * * * * * * * * * * * * * * * * * * * * * * * * * * * * * * * * //

dimensions      [0 2 -2 0 0 0 0];

internalField   nonuniform List<scalar> 
6440
(
6.06216e-05
6.06691e-05
6.07128e-05
6.07846e-05
6.09311e-05
6.12154e-05
6.17153e-05
6.25107e-05
6.36775e-05
6.52891e-05
6.74003e-05
7.00417e-05
7.32112e-05
7.68705e-05
8.09473e-05
8.53445e-05
8.99424e-05
9.46071e-05
9.92204e-05
0.000103696
0.000108001
0.000112137
0.000115998
0.000119614
0.000122646
6.03096e-05
6.02721e-05
6.01529e-05
5.99715e-05
5.97654e-05
5.95916e-05
5.95198e-05
5.96337e-05
6.00186e-05
6.07641e-05
6.19578e-05
6.36777e-05
6.59889e-05
6.89363e-05
7.25383e-05
7.67846e-05
8.16328e-05
8.70185e-05
9.2855e-05
9.90461e-05
0.000105499
0.000112124
0.000118607
0.000124632
0.000129825
6.02247e-05
6.00846e-05
5.97755e-05
5.93105e-05
5.87192e-05
5.80594e-05
5.74e-05
5.68257e-05
5.64368e-05
5.63469e-05
5.66661e-05
5.75154e-05
5.90122e-05
6.1263e-05
6.43573e-05
6.83514e-05
7.32682e-05
7.90836e-05
8.57305e-05
9.31038e-05
0.000101067
0.000109454
0.000117817
0.000125448
0.000131687
6.0758e-05
6.05243e-05
6.00462e-05
5.93315e-05
5.8408e-05
5.73375e-05
5.61936e-05
5.50675e-05
5.4067e-05
5.33173e-05
5.29559e-05
5.31333e-05
5.40057e-05
5.57096e-05
5.83793e-05
6.21174e-05
6.69762e-05
7.29544e-05
7.99937e-05
8.7985e-05
9.67716e-05
0.000106158
0.000115663
0.000124362
0.000131387
6.2123e-05
6.18015e-05
6.11709e-05
6.02309e-05
5.90102e-05
5.75755e-05
5.60052e-05
5.43972e-05
5.28684e-05
5.15545e-05
5.06085e-05
5.01958e-05
5.04907e-05
5.16764e-05
5.39175e-05
5.73299e-05
6.19928e-05
6.79193e-05
7.50625e-05
8.3318e-05
9.25308e-05
0.000102514
0.000112801
0.000122351
0.000130112
6.43945e-05
6.39877e-05
6.32144e-05
6.20647e-05
6.05636e-05
5.87868e-05
5.68168e-05
5.47567e-05
5.273e-05
5.08806e-05
4.93717e-05
4.83807e-05
4.80963e-05
4.87122e-05
5.04272e-05
5.34015e-05
5.77162e-05
6.34143e-05
7.04703e-05
7.87825e-05
8.82338e-05
9.86547e-05
0.000109587
0.000119897
0.000128338
6.75752e-05
6.70869e-05
6.61786e-05
6.48285e-05
6.30667e-05
6.09645e-05
5.86121e-05
5.61165e-05
5.36053e-05
5.12276e-05
4.9152e-05
4.7563e-05
4.66588e-05
4.66447e-05
4.77271e-05
5.01155e-05
5.39364e-05
5.92484e-05
6.60653e-05
7.43476e-05
8.39429e-05
9.47262e-05
0.000106267
0.000117316
0.000126424
7.16347e-05
7.10718e-05
7.00396e-05
6.85041e-05
6.64996e-05
6.40948e-05
6.13758e-05
5.84589e-05
5.54731e-05
5.25688e-05
4.99168e-05
4.77042e-05
4.61337e-05
4.54208e-05
4.57842e-05
4.74447e-05
5.06295e-05
5.54105e-05
6.18612e-05
6.99791e-05
7.96818e-05
9.08025e-05
0.000102944
0.000114745
0.000124535
7.65204e-05
7.58932e-05
7.47522e-05
7.30508e-05
7.08236e-05
6.81422e-05
6.50891e-05
6.17674e-05
5.83196e-05
5.48938e-05
5.16592e-05
4.88028e-05
4.65285e-05
4.5057e-05
4.46224e-05
4.54647e-05
4.78336e-05
5.19401e-05
5.78726e-05
6.56962e-05
7.54133e-05
8.68589e-05
9.95863e-05
0.000112171
0.000122669
8.21644e-05
8.14864e-05
8.02564e-05
7.84157e-05
7.59979e-05
7.30702e-05
6.97131e-05
6.60277e-05
6.214e-05
5.82069e-05
5.43937e-05
5.08842e-05
4.78817e-05
4.56088e-05
4.43087e-05
4.42416e-05
4.5683e-05
4.8943e-05
5.41857e-05
6.15565e-05
7.11258e-05
8.28143e-05
9.61198e-05
0.000109499
0.000120722
8.84846e-05
8.77726e-05
8.64788e-05
8.45337e-05
8.19677e-05
7.88412e-05
7.52275e-05
7.12213e-05
6.69385e-05
6.25305e-05
5.81582e-05
5.40015e-05
5.02616e-05
4.71614e-05
4.49485e-05
4.38984e-05
4.43162e-05
4.65475e-05
5.08969e-05
5.759e-05
6.67932e-05
7.85649e-05
9.24125e-05
0.000106561
0.000118518
9.5386e-05
9.46593e-05
9.33324e-05
9.1326e-05
8.8666e-05
8.54034e-05
8.16007e-05
7.7341e-05
7.27309e-05
6.79047e-05
6.30155e-05
5.82368e-05
5.37673e-05
4.98289e-05
4.66711e-05
4.45782e-05
4.38722e-05
4.49348e-05
4.815e-05
5.38842e-05
6.24635e-05
7.40329e-05
8.82601e-05
0.000103135
0.000115834
0.000102761
0.000102041
0.000100716
9.86997e-05
9.6011e-05
9.26906e-05
8.87878e-05
8.43702e-05
7.95314e-05
7.43793e-05
6.90473e-05
6.37008e-05
5.85334e-05
5.3765e-05
4.96457e-05
4.64719e-05
4.45482e-05
4.42736e-05
4.61068e-05
5.05579e-05
5.81313e-05
6.91721e-05
8.34818e-05
9.90181e-05
0.000112397
0.00011049
0.0001098
0.000108516
0.000106546
0.000103903
0.000100616
9.67217e-05
9.22693e-05
8.73371e-05
8.19937e-05
7.63422e-05
7.05321e-05
6.47579e-05
5.92175e-05
5.41348e-05
4.97964e-05
4.65347e-05
4.47584e-05
4.49717e-05
4.77902e-05
5.3904e-05
6.39333e-05
7.79334e-05
9.38408e-05
0.000107745
0.000118444
0.000117807
0.000116604
0.00011474
0.000112223
0.000109072
0.000105309
0.000100969
9.61114e-05
9.07538e-05
8.49864e-05
7.89106e-05
7.26627e-05
6.64203e-05
6.04009e-05
5.48757e-05
5.01775e-05
4.67243e-05
4.5049e-05
4.58335e-05
4.99275e-05
5.82453e-05
7.12485e-05
8.69844e-05
0.000101221
0.000126485
0.000125924
0.000124842
0.000123145
0.000120837
0.000117929
0.000114432
0.00011038
0.000105787
0.000100654
9.50131e-05
8.89109e-05
8.24277e-05
7.56884e-05
6.88669e-05
6.21993e-05
5.60018e-05
5.06967e-05
4.68352e-05
4.51113e-05
4.64884e-05
5.21657e-05
6.31409e-05
7.7882e-05
9.1953e-05
0.000134471
0.000134006
0.000133081
0.000131608
0.000129584
0.000127022
0.000123939
0.000120349
0.000116218
0.000111543
0.000106316
0.000100529
9.41812e-05
8.73133e-05
8.00247e-05
7.24677e-05
6.48811e-05
5.7621e-05
5.12147e-05
4.64439e-05
4.42156e-05
4.59877e-05
5.33568e-05
6.55043e-05
7.83721e-05
0.000142252
0.000141897
0.000141161
0.000139971
0.000138318
0.000136214
0.00013369
0.000130697
0.000127224
0.000123248
0.00011873
0.000113617
0.000107848
0.000101371
9.41632e-05
8.62626e-05
7.77527e-05
6.88141e-05
5.97981e-05
5.13823e-05
4.45495e-05
4.07212e-05
4.20982e-05
4.86423e-05
5.78762e-05
0.000149686
0.000149453
0.000148941
0.000148067
0.00014684
0.000145304
0.000143413
0.000141148
0.00013849
0.000135399
0.000131818
0.000127667
0.000122842
0.000117254
0.000110793
0.000103294
9.46976e-05
8.49099e-05
7.39479e-05
6.19685e-05
4.98069e-05
3.84969e-05
3.05547e-05
2.65105e-05
2.5758e-05
0.000156665
0.00015655
0.00015624
0.000155666
0.00015487
0.000153807
0.000152482
0.00015089
0.000149002
0.000146778
0.000144161
0.000141075
0.000137417
0.000133013
0.000127643
0.000121126
0.000113236
0.000103675
9.21796e-05
7.82449e-05
6.14109e-05
4.20886e-05
2.0783e-05
-2.31962e-06
-2.89312e-05
0.000163138
0.000163084
0.000162884
0.000162486
0.000161873
0.000161057
0.000160032
0.000158781
0.000157278
0.000155481
0.000153334
0.000150757
0.000147646
0.000143862
0.000139228
0.000133495
0.00012627
0.000117215
0.000105863
9.15562e-05
7.34741e-05
5.03982e-05
1.92385e-05
-2.78311e-05
-0.000113718
0.000169249
0.000169201
0.000169002
0.000168603
0.000167995
0.000167182
0.000166155
0.000164898
0.000163385
0.000161575
0.000159413
0.000156821
0.000153695
0.000149899
0.00014526
0.000139551
0.00013248
0.000123651
0.000112429
9.83535e-05
8.04066e-05
5.70471e-05
2.5284e-05
-2.01912e-05
-8.59034e-05
0.000175027
0.000174972
0.000174757
0.00017433
0.000173689
0.000172829
0.000171745
0.000170419
0.000168828
0.000166933
0.000164679
0.000161992
0.000158772
0.000154889
0.000150178
0.00014443
0.000137379
0.000128685
0.000117905
0.000104424
8.75226e-05
6.60412e-05
3.82995e-05
2.46745e-06
-4.11536e-05
0.000180484
0.000180422
0.000180194
0.000179749
0.000179082
0.000178191
0.000177069
0.000175703
0.000174068
0.000172132
0.000169844
0.000167135
0.000163914
0.000160066
0.000155442
0.000149862
0.000143101
0.000134885
0.000124879
0.000112664
9.77511e-05
7.95349e-05
5.74396e-05
3.14813e-05
3.66364e-06
0.000185627
0.000185562
0.000185331
0.000184882
0.000184211
0.000183317
0.000182194
0.000180832
0.000179211
0.000177302
0.000175063
0.000172433
0.000169334
0.000165669
0.000161315
0.000156128
0.000149936
0.000142542
0.000133724
0.000123247
0.00011088
9.64642e-05
8.00688e-05
6.24049e-05
4.5412e-05
0.000190466
0.000190402
0.000190176
0.000189736
0.00018908
0.000188209
0.000187118
0.000185801
0.000184244
0.000182423
0.000180303
0.000177837
0.000174962
0.0001716
0.000167659
0.000163033
0.000157605
0.000151255
0.000143866
0.000135349
0.000125679
0.000114963
0.000103578
9.23721e-05
8.28687e-05
0.000195008
0.000194948
0.000194734
0.000194315
0.000193692
0.000192866
0.000191836
0.0001906
0.000189147
0.000187463
0.000185522
0.000183288
0.000180715
0.000177746
0.000174319
0.000170364
0.000165816
0.00016062
0.000154746
0.000148212
0.000141121
0.000133719
0.000126475
0.000120184
0.000115987
0.000199258
0.000199205
0.00019901
0.000198624
0.000198047
0.000197285
0.00019634
0.000195213
0.0001939
0.000192393
0.000190675
0.000188723
0.000186508
0.000183993
0.000181141
0.000177918
0.000174299
0.000170282
0.000165898
0.000161236
0.000156469
0.000151893
0.000147977
0.000145393
0.000145005
0.000203221
0.000203178
0.000203007
0.000202662
0.000202144
0.000201462
0.000200621
0.000199626
0.000198479
0.000197178
0.000195716
0.000194081
0.000192259
0.000190231
0.000187983
0.000185509
0.000182817
0.000179941
0.000176954
0.000173983
0.00017123
0.000168997
0.000167706
0.00016791
0.000170265
0.000206899
0.000206868
0.000206726
0.000206428
0.00020598
0.00020539
0.000204668
0.000203822
0.000202859
0.000201784
0.000200598
0.0001993
0.000197888
0.000196359
0.000194717
0.000192978
0.000191172
0.00018936
0.000187636
0.000186145
0.000185093
0.000184764
0.00018552
0.000187808
0.000192132
0.000210292
0.000210276
0.000210166
0.000209922
0.00020955
0.000209061
0.000208468
0.000207782
0.000207015
0.000206177
0.000205277
0.000204323
0.000203322
0.000202286
0.000201231
0.000200189
0.000199206
0.000198356
0.000197744
0.000197519
0.000197876
0.000199068
0.000201403
0.000205236
0.000210957
0.000213403
0.000213403
0.000213327
0.000213139
0.000212848
0.000212466
0.000212008
0.000211488
0.000210922
0.000210325
0.000209713
0.000209098
0.000208499
0.000207934
0.000207433
0.000207034
0.000206795
0.000206795
0.000207143
0.00020798
0.000209484
0.000211876
0.00021541
0.000220373
0.000227064
0.000216231
0.000216247
0.000216207
0.000216078
0.00021587
0.000215597
0.000215276
0.000214923
0.000214559
0.0002142
0.000213868
0.000213581
0.000213363
0.00021324
0.000213248
0.00021343
0.00021385
0.000214588
0.000215748
0.00021746
0.000219884
0.000223205
0.000227637
0.000233406
0.000240745
0.000218776
0.000218808
0.000218804
0.000218735
0.00021861
0.000218447
0.000218261
0.000218074
0.000217906
0.000217778
0.000217713
0.000217736
0.000217873
0.000218155
0.00021862
0.000219319
0.000220311
0.000221677
0.000223511
0.000225933
0.00022908
0.00023311
0.000238195
0.000244519
0.000252261
0.000221039
0.000221087
0.000221119
0.000221108
0.000221066
0.000221009
0.000220956
0.000220928
0.000220947
0.000221037
0.000221224
0.000221532
0.000221993
0.00022264
0.000223512
0.000224659
0.00022614
0.00022803
0.000230416
0.000233402
0.000237106
0.000241661
0.000247207
0.000253888
0.000261846
0.00022302
0.000223083
0.00022315
0.000223196
0.000223233
0.000223279
0.000223352
0.000223475
0.000223671
0.000223964
0.000224382
0.000224951
0.000225703
0.000226671
0.000227897
0.000229427
0.000231318
0.000233638
0.000236465
0.00023989
0.000244012
0.000248941
0.000254792
0.000261679
0.00026971
0.000224721
0.0002248
0.0002249
0.000224999
0.000225112
0.000225254
0.000225446
0.00022571
0.000226069
0.000226548
0.000227175
0.000227977
0.000228985
0.000230234
0.000231761
0.000233613
0.000235842
0.000238507
0.000241679
0.000245434
0.000249858
0.000255039
0.000261071
0.000268043
0.000276038
0.000226145
0.000226238
0.000226369
0.000226519
0.000226701
0.000226934
0.000227236
0.000227629
0.000228137
0.000228784
0.000229597
0.000230604
0.000231835
0.000233322
0.000235103
0.00023722
0.000239719
0.000242655
0.000246087
0.000250081
0.000254709
0.000260043
0.000266157
0.000273121
0.000280999
0.000227296
0.000227401
0.00022756
0.000227757
0.000228005
0.00022832
0.000228722
0.000229232
0.000229873
0.000230669
0.000231645
0.00023283
0.00023425
0.000235938
0.000237927
0.000240256
0.000242967
0.000246107
0.000249727
0.000253884
0.000258636
0.000264041
0.000270159
0.000277043
0.000284743
0.000228178
0.000228294
0.000228479
0.000228718
0.000229024
0.000229415
0.000229907
0.000230521
0.00023128
0.000232206
0.000233323
0.000234658
0.000236237
0.000238089
0.000240245
0.000242739
0.000245609
0.000248896
0.000252643
0.000256898
0.000261707
0.000267119
0.000273179
0.000279929
0.000287404
0.000228797
0.000228923
0.000229131
0.000229407
0.000229766
0.000230223
0.000230795
0.000231501
0.000232362
0.000233399
0.000234636
0.000236097
0.000237805
0.000239788
0.000242073
0.000244691
0.000247674
0.000251059
0.000254881
0.000259179
0.000263992
0.000269358
0.000275312
0.000281886
0.000289104
0.000229159
0.000229294
0.000229522
0.000229832
0.000230237
0.000230752
0.000231393
0.000232178
0.000233127
0.000234259
0.000235595
0.000237157
0.000238968
0.000241051
0.000243432
0.000246137
0.000249194
0.000252634
0.000256487
0.000260784
0.000265557
0.000270836
0.000276647
0.000283014
0.000289952
0.000229273
0.000229415
0.00022966
0.000229999
0.000230444
0.000231009
0.00023171
0.000232562
0.000233584
0.000234793
0.000236209
0.000237852
0.000239741
0.000241898
0.000244345
0.000247105
0.000250202
0.000253661
0.000257509
0.000261769
0.000266467
0.000271626
0.000277267
0.000283404
0.000290048
0.000229147
0.000229295
0.000229554
0.000229917
0.000230397
0.000231005
0.000231755
0.000232664
0.000233745
0.000235017
0.000236495
0.000238198
0.000240144
0.000242351
0.000244838
0.000247625
0.000250733
0.000254182
0.000257993
0.000262187
0.000266783
0.000271798
0.000277246
0.000283139
0.000289481
0.000228791
0.000228943
0.000229214
0.000229597
0.000230105
0.000230749
0.00023154
0.000232494
0.000233623
0.000234942
0.000236467
0.000238213
0.000240196
0.000242432
0.000244936
0.000247727
0.000250821
0.000254235
0.000257987
0.000262091
0.000266562
0.000271414
0.000276656
0.000282294
0.00028833
0.000228214
0.000228369
0.000228649
0.000229049
0.00022958
0.000230252
0.000231076
0.000232065
0.000233231
0.000234585
0.000236143
0.000237916
0.000239919
0.000242165
0.000244668
0.000247442
0.000250502
0.000253861
0.000257532
0.000261528
0.000265859
0.000270535
0.00027556
0.000280938
0.000286668
0.000227428
0.000227585
0.000227871
0.000228284
0.000228833
0.000229527
0.000230377
0.000231392
0.000232583
0.000233962
0.000235539
0.000237326
0.000239334
0.000241575
0.00024406
0.000246801
0.00024981
0.000253097
0.000256673
0.000260546
0.000264725
0.000269214
0.000274017
0.000279134
0.000284561
0.000226443
0.000226601
0.000226892
0.000227315
0.000227877
0.000228588
0.000229455
0.000230488
0.000231697
0.000233089
0.000234674
0.000236462
0.000238463
0.000240685
0.000243139
0.000245833
0.000248777
0.000251979
0.000255447
0.000259188
0.000263205
0.000267503
0.000272082
0.000276938
0.000282068
0.000225272
0.00022543
0.000225723
0.000226152
0.000226724
0.000227445
0.000228325
0.000229369
0.000230586
0.000231983
0.000233567
0.000235346
0.000237328
0.00023952
0.000241931
0.000244567
0.000247435
0.000250543
0.000253894
0.000257494
0.000261345
0.000265448
0.000269802
0.000274402
0.000279242
0.000223925
0.000224082
0.000224377
0.000224809
0.000225386
0.000226114
0.000227
0.000228049
0.000229267
0.000230661
0.000232235
0.000233996
0.00023595
0.000238104
0.000240462
0.000243031
0.000245815
0.00024882
0.000252048
0.000255503
0.000259184
0.000263092
0.000267222
0.000271571
0.00027613
0.000222416
0.000222571
0.000222865
0.000223298
0.000223877
0.000224608
0.000225495
0.000226543
0.000227756
0.00022914
0.000230697
0.000232433
0.000234352
0.000236458
0.000238757
0.000241251
0.000243945
0.000246842
0.000249943
0.000253249
0.00025676
0.000260473
0.000264385
0.000268488
0.000272775
0.000220755
0.000220908
0.0002212
0.000221632
0.00022221
0.00022294
0.000223824
0.000224866
0.000226069
0.000227437
0.000228971
0.000230675
0.000232553
0.000234606
0.000236839
0.000239254
0.000241853
0.000244638
0.000247609
0.000250766
0.000254107
0.000257628
0.000261325
0.000265191
0.000269217
0.000218956
0.000219106
0.000219394
0.000219823
0.000220399
0.000221123
0.000222001
0.000223033
0.000224221
0.000225568
0.000227074
0.000228742
0.000230573
0.000232569
0.000234732
0.000237063
0.000239564
0.000242235
0.000245075
0.000248083
0.000251255
0.000254589
0.000258078
0.000261715
0.00026549
0.000217029
0.000217176
0.00021746
0.000217884
0.000218454
0.000219172
0.00022004
0.000221058
0.000222228
0.00022355
0.000225024
0.000226651
0.000228431
0.000230366
0.000232456
0.000234701
0.000237102
0.000239658
0.000242367
0.000245228
0.000248236
0.000251387
0.000254674
0.00025809
0.000261626
0.000214988
0.000215131
0.000215409
0.000215828
0.000216391
0.000217099
0.000217954
0.000218956
0.000220104
0.000221398
0.000222836
0.000224419
0.000226147
0.000228018
0.000230032
0.00023219
0.00023449
0.000236931
0.000239511
0.000242227
0.000245074
0.000248047
0.00025114
0.000254345
0.000257652
0.000212843
0.000212982
0.000213255
0.000213666
0.00021422
0.000214917
0.000215757
0.000216739
0.000217863
0.000219127
0.000220527
0.000222064
0.000223736
0.000225542
0.00022748
0.000229549
0.000231749
0.000234076
0.000236529
0.000239103
0.000241794
0.000244596
0.000247502
0.000250505
0.000253594
0.000210606
0.00021074
0.000211007
0.00021141
0.000211954
0.000212638
0.000213461
0.000214423
0.000215521
0.000216751
0.000218112
0.000219601
0.000221216
0.000222955
0.000224817
0.000226798
0.000228898
0.000231114
0.000233442
0.000235878
0.000238418
0.000241055
0.000243782
0.000246592
0.000249475
0.000208288
0.000208418
0.000208678
0.000209072
0.000209605
0.000210275
0.00021108
0.000212019
0.000213089
0.000214286
0.000215606
0.000217046
0.000218603
0.000220276
0.00022206
0.000223955
0.000225957
0.000228063
0.00023027
0.000232573
0.000234967
0.000237445
0.000240002
0.000242629
0.000245316
0.000205901
0.000206026
0.000206278
0.000206664
0.000207184
0.000207839
0.000208625
0.000209541
0.000210582
0.000211743
0.000213021
0.000214412
0.000215912
0.000217517
0.000219226
0.000221035
0.000222941
0.000224941
0.00022703
0.000229204
0.000231458
0.000233786
0.00023618
0.000238632
0.000241134
0.000203454
0.000203574
0.000203819
0.000204195
0.000204703
0.000205341
0.000206108
0.000207
0.000208011
0.000209136
0.000210372
0.000211713
0.000213156
0.000214696
0.00021633
0.000218055
0.000219868
0.000221764
0.00022374
0.00022579
0.00022791
0.000230093
0.000232332
0.00023462
0.000236947
0.000200958
0.000201074
0.000201311
0.000201677
0.000202171
0.000202794
0.00020354
0.000204407
0.000205388
0.000206478
0.000207671
0.000208963
0.000210349
0.000211824
0.000213385
0.000215029
0.000216751
0.000218547
0.000220414
0.000222346
0.000224337
0.000226382
0.000228475
0.000230606
0.000232769
0.000198422
0.000198534
0.000198764
0.000199119
0.000199601
0.000200206
0.000200932
0.000201773
0.000202724
0.000203778
0.00020493
0.000206173
0.000207503
0.000208915
0.000210405
0.000211969
0.000213604
0.000215304
0.000217066
0.000218884
0.000220754
0.000222668
0.000224621
0.000226606
0.000228613
0.000195857
0.000195964
0.000196186
0.000196531
0.000197
0.000197589
0.000198294
0.00019911
0.000200031
0.00020105
0.00020216
0.000203355
0.00020463
0.000205981
0.000207402
0.00020889
0.00021044
0.000212048
0.00021371
0.00021542
0.000217173
0.000218964
0.000220785
0.00022263
0.000224492
0.00019327
0.000193373
0.000193588
0.000193924
0.000194379
0.000194951
0.000195636
0.000196427
0.000197318
0.000198302
0.000199371
0.00020052
0.000201742
0.000203033
0.000204387
0.000205801
0.00020727
0.00020879
0.000210356
0.000211963
0.000213607
0.00021528
0.000216977
0.000218691
0.000220415
0.000190672
0.000190771
0.000190979
0.000191304
0.000191746
0.000192302
0.000192967
0.000193733
0.000194595
0.000195545
0.000196575
0.000197678
0.000198849
0.000200081
0.000201372
0.000202715
0.000204106
0.000205542
0.000207017
0.000208526
0.000210065
0.000211627
0.000213207
0.000214798
0.000216394
0.00018807
0.000188165
0.000188367
0.000188682
0.000189111
0.000189651
0.000190295
0.000191038
0.000191871
0.000192788
0.000193779
0.000194838
0.000195959
0.000197137
0.000198365
0.00019964
0.000200958
0.000202313
0.000203701
0.000205118
0.000206558
0.000208015
0.000209485
0.00021096
0.000212435
0.000185473
0.000185564
0.000185759
0.000186065
0.000186482
0.000187006
0.000187631
0.00018835
0.000189155
0.000190039
0.000190993
0.00019201
0.000193083
0.000194207
0.000195377
0.000196587
0.000197834
0.000199113
0.000200419
0.000201748
0.000203094
0.000204453
0.000205819
0.000207186
0.000208548
0.000182887
0.000182975
0.000183164
0.000183461
0.000183866
0.000184374
0.00018498
0.000185677
0.000186456
0.000187308
0.000188226
0.000189202
0.000190229
0.000191302
0.000192415
0.000193564
0.000194743
0.00019595
0.000197178
0.000198424
0.000199683
0.000200949
0.000202217
0.000203482
0.000204739
0.000180321
0.000180406
0.000180589
0.000180877
0.00018127
0.000181764
0.000182352
0.000183027
0.000183779
0.000184602
0.000185485
0.000186422
0.000187406
0.000188429
0.000189489
0.000190578
0.000191694
0.000192832
0.000193987
0.000195154
0.00019633
0.000197509
0.000198686
0.000199856
0.000201013
0.000177781
0.000177863
0.00017804
0.000178321
0.000178703
0.000179183
0.000179753
0.000180406
0.000181134
0.000181928
0.000182778
0.000183678
0.000184619
0.000185596
0.000186604
0.000187638
0.000188693
0.000189766
0.000190851
0.000191945
0.000193043
0.00019414
0.000195232
0.000196313
0.000197378
0.000175273
0.000175354
0.000175526
0.000175799
0.00017617
0.000176636
0.00017719
0.000177823
0.000178527
0.000179293
0.000180112
0.000180976
0.000181877
0.00018281
0.000183769
0.00018475
0.000185748
0.000186759
0.000187779
0.000188804
0.000189828
0.000190848
0.00019186
0.000192858
0.000193837
0.000172805
0.000172883
0.000173051
0.000173317
0.000173679
0.000174132
0.00017467
0.000175284
0.000175965
0.000176705
0.000177493
0.000178322
0.000179186
0.000180076
0.00018099
0.00018192
0.000182864
0.000183818
0.000184776
0.000185735
0.000186691
0.000187639
0.000188576
0.000189496
0.000190395
0.000170381
0.000170458
0.000170622
0.000170882
0.000171234
0.000171676
0.000172198
0.000172794
0.000173454
0.000174168
0.000174927
0.000175724
0.000176551
0.000177402
0.000178272
0.000179155
0.000180048
0.000180947
0.000181847
0.000182745
0.000183636
0.000184517
0.000185383
0.000186231
0.000187056
0.000168008
0.000168084
0.000168245
0.000168499
0.000168843
0.000169273
0.000169781
0.00017036
0.000170999
0.000171689
0.000172421
0.000173187
0.00017398
0.000174793
0.000175621
0.000176459
0.000177304
0.000178151
0.000178997
0.000179837
0.000180668
0.000181486
0.000182288
0.000183068
0.000183824
0.000165691
0.000165767
0.000165925
0.000166173
0.00016651
0.000166929
0.000167424
0.000167986
0.000168606
0.000169273
0.00016998
0.000170716
0.000171476
0.000172253
0.000173042
0.000173838
0.000174638
0.000175437
0.000176231
0.000177017
0.000177792
0.000178551
0.000179292
0.000180009
0.000180701
0.000163434
0.000163511
0.000163667
0.000163911
0.000164241
0.00016465
0.000165133
0.000165679
0.00016628
0.000166926
0.000167608
0.000168317
0.000169046
0.000169789
0.000170541
0.000171297
0.000172053
0.000172807
0.000173553
0.000174289
0.000175011
0.000175715
0.000176399
0.000177058
0.00017769
0.000161244
0.000161321
0.000161477
0.000161717
0.00016204
0.000162441
0.000162912
0.000163443
0.000164027
0.000164652
0.000165311
0.000165993
0.000166693
0.000167404
0.00016812
0.000168839
0.000169555
0.000170266
0.000170967
0.000171655
0.000172328
0.000172981
0.000173612
0.000174217
0.000174793
0.000159124
0.000159203
0.000159358
0.000159596
0.000159913
0.000160306
0.000160766
0.000161284
0.000161851
0.000162457
0.000163092
0.00016375
0.000164422
0.000165102
0.000165786
0.000166468
0.000167147
0.000167817
0.000168476
0.00016912
0.000169746
0.000170352
0.000170934
0.000171489
0.000172014
0.000157078
0.00015716
0.000157316
0.000157552
0.000157865
0.00015825
0.0001587
0.000159205
0.000159756
0.000160343
0.000160958
0.000161591
0.000162237
0.000162888
0.00016354
0.000164189
0.000164831
0.000165464
0.000166083
0.000166685
0.000167269
0.00016783
0.000168366
0.000168874
0.000169352
0.000155112
0.000155197
0.000155356
0.00015559
0.000155899
0.000156278
0.000156718
0.000157211
0.000157747
0.000158316
0.000158911
0.000159521
0.000160141
0.000160765
0.000161387
0.000162004
0.000162613
0.000163209
0.000163791
0.000164354
0.000164898
0.000165418
0.000165911
0.000166377
0.000166811
0.000153229
0.000153319
0.000153481
0.000153715
0.000154021
0.000154394
0.000154825
0.000155306
0.000155827
0.00015638
0.000156955
0.000157543
0.000158139
0.000158736
0.000159329
0.000159916
0.000160493
0.000161056
0.000161602
0.000162129
0.000162635
0.000163116
0.000163571
0.000163996
0.00016439
0.000151434
0.00015153
0.000151696
0.000151931
0.000152235
0.000152602
0.000153025
0.000153494
0.000154002
0.000154538
0.000155093
0.00015566
0.000156232
0.000156804
0.00015737
0.000157928
0.000158474
0.000159005
0.000159519
0.000160012
0.000160483
0.000160928
0.000161346
0.000161735
0.000162091
0.00014973
0.000149834
0.000150005
0.000150243
0.000150545
0.000150907
0.000151322
0.000151781
0.000152274
0.000152793
0.00015333
0.000153876
0.000154425
0.000154972
0.000155512
0.000156042
0.000156559
0.00015706
0.000157543
0.000158004
0.000158442
0.000158854
0.000159238
0.000159593
0.000159915
0.000148122
0.000148235
0.000148415
0.000148655
0.000148956
0.000149314
0.000149721
0.000150168
0.000150647
0.00015115
0.000151668
0.000152193
0.000152719
0.000153242
0.000153757
0.000154261
0.00015475
0.000155222
0.000155675
0.000156107
0.000156514
0.000156895
0.000157248
0.000157571
0.000157862
0.000146614
0.000146739
0.000146928
0.000147173
0.000147474
0.000147827
0.000148225
0.000148661
0.000149125
0.000149611
0.000150109
0.000150614
0.000151118
0.000151617
0.000152107
0.000152585
0.000153048
0.000153493
0.000153918
0.000154321
0.0001547
0.000155052
0.000155376
0.00015567
0.000155932
0.00014521
0.000145351
0.000145552
0.000145802
0.000146103
0.000146451
0.00014684
0.000147263
0.000147712
0.000148179
0.000148658
0.00014914
0.000149622
0.000150097
0.000150563
0.000151016
0.000151453
0.000151872
0.000152272
0.000152648
0.000153
0.000153326
0.000153623
0.000153891
0.000154126
0.000143917
0.000144076
0.000144292
0.000144549
0.000144849
0.000145192
0.00014557
0.000145978
0.00014641
0.000146857
0.000147314
0.000147775
0.000148233
0.000148685
0.000149127
0.000149555
0.000149968
0.000150362
0.000150736
0.000151088
0.000151415
0.000151716
0.000151989
0.000152232
0.000152444
0.000142741
0.000142922
0.000143156
0.00014342
0.00014372
0.000144054
0.000144419
0.00014481
0.000145222
0.000145648
0.000146082
0.000146519
0.000146953
0.000147381
0.000147798
0.000148203
0.000148592
0.000148962
0.000149313
0.000149641
0.000149945
0.000150223
0.000150474
0.000150694
0.000150884
0.000141688
0.000141898
0.000142154
0.000142426
0.000142722
0.000143045
0.000143393
0.000143763
0.000144151
0.000144552
0.000144961
0.000145372
0.000145781
0.000146185
0.000146578
0.000146959
0.000147325
0.000147673
0.000148001
0.000148308
0.00014859
0.000148847
0.000149077
0.000149277
0.000149448
0.000140771
0.000141016
0.000141297
0.000141576
0.000141865
0.000142171
0.000142495
0.000142839
0.000143198
0.000143571
0.000143952
0.000144336
0.000144719
0.000145097
0.000145466
0.000145824
0.000146167
0.000146494
0.000146801
0.000147087
0.00014735
0.000147588
0.000147798
0.000147981
0.000148133
0.000140003
0.000140292
0.000140603
0.000140884
0.000141158
0.000141439
0.000141732
0.000142041
0.000142366
0.000142705
0.000143054
0.000143408
0.000143764
0.000144116
0.000144461
0.000144796
0.000145118
0.000145424
0.000145712
0.000145979
0.000146223
0.000146444
0.000146637
0.000146803
0.00014694
0.000139407
0.000139751
0.000140092
0.000140368
0.000140614
0.000140856
0.000141105
0.00014137
0.000141653
0.000141952
0.000142266
0.000142588
0.000142914
0.00014324
0.000143561
0.000143874
0.000144176
0.000144462
0.000144732
0.000144982
0.00014521
0.000145415
0.000145593
0.000145745
0.000145868
0.00013902
0.000139426
0.000139796
0.000140049
0.000140246
0.000140429
0.000140618
0.000140825
0.000141056
0.00014131
0.000141584
0.000141872
0.000142168
0.000142467
0.000142765
0.000143057
0.000143339
0.000143608
0.000143861
0.000144096
0.000144309
0.0001445
0.000144665
0.000144804
0.000144915
0.000138905
0.000139376
0.000139757
0.000139954
0.000140068
0.000140162
0.000140268
0.000140402
0.000140571
0.000140773
0.000141003
0.000141254
0.00014152
0.000141794
0.000142069
0.000142341
0.000142606
0.000142859
0.000143098
0.000143319
0.00014352
0.000143698
0.000143852
0.00014398
0.000144081
0.000139179
0.000139687
0.000140033
0.000140113
0.000140089
0.000140053
0.000140049
0.000140092
0.000140187
0.000140331
0.000140515
0.00014073
0.000140966
0.000141215
0.00014147
0.000141725
0.000141975
0.000142214
0.000142441
0.00014265
0.00014284
0.000143009
0.000143153
0.000143272
0.000143365
0.000140045
0.000140494
0.000140698
0.000140555
0.000140311
0.000140092
0.000139943
0.000139877
0.00013989
0.000139973
0.000140111
0.000140291
0.0001405
0.000140728
0.000140965
0.000141205
0.000141442
0.000141671
0.000141887
0.000142088
0.000142269
0.00014243
0.000142567
0.000142679
0.000142764
0.000141858
0.000141994
0.000141827
0.000141287
0.000140711
0.000140244
0.000139921
0.000139733
0.000139661
0.000139684
0.00013978
0.000139929
0.000140115
0.000140326
0.00014055
0.000140779
0.000141007
0.000141228
0.000141437
0.000141631
0.000141806
0.00014196
0.000142092
0.000142199
0.000142279
0.000145565
0.000144612
0.000143479
0.000142245
0.000141204
0.000140438
0.000139923
0.000139613
0.000139466
0.00013944
0.000139504
0.000139632
0.000139803
0.000140003
0.000140219
0.000140442
0.000140665
0.000140881
0.000141086
0.000141276
0.000141448
0.000141599
0.000141726
0.00014183
0.000141907
0.000154345
0.000149286
0.000145588
0.000143213
0.000141602
0.000140523
0.000139842
0.000139448
0.000139256
0.000139207
0.000139259
0.00013938
0.000139549
0.000139747
0.000139962