/*--------------------------------*- C++ -*----------------------------------*\
  =========                 |
  \\      /  F ield         | OpenFOAM: The Open Source CFD Toolbox
   \\    /   O peration     | Website:  https://openfoam.org
    \\  /    A nd           | Version:  13
     \\/     M anipulation  |
\*---------------------------------------------------------------------------*/
FoamFile
{
    format      ascii;
    class       surfaceScalarField;
    location    "8";
    object      phi;
}
// * * * * * * * * * * * * * * * * * * * * * * * * * * * * * * * * * * * * * //

dimensions      [0 3 -1 0 0 0 0];

internalField   nonuniform List<scalar> 
12590
(
1.23088e-13
-1.23071e-13
6.08465e-13
-4.85353e-13
1.0528e-12
-4.44308e-13
1.33032e-12
-2.77493e-13
1.3994e-12
-6.90565e-14
1.21877e-12
1.8065e-13
7.52473e-13
4.66323e-13
-1.22887e-14
7.64785e-13
-1.06415e-12
1.05188e-12
-2.37249e-12
1.30837e-12
-3.88014e-12
1.50767e-12
-5.48584e-12
1.60572e-12
-7.07842e-12
1.5926e-12
-8.56571e-12
1.48731e-12
-9.89636e-12
1.33066e-12
-1.0978e-11
1.08164e-12
-1.16938e-11
7.15848e-13
-1.20769e-11
3.83056e-13
-1.21775e-11
1.00599e-13
-1.20813e-11
-9.61883e-14
-1.18011e-11
-2.80128e-13
-1.10001e-11
-8.0102e-13
-9.4721e-12
-1.52803e-12
-5.45919e-12
-4.01291e-12
-5.45919e-12
6.10571e-13
-7.33612e-13
1.65578e-12
-1.53052e-12
2.68955e-12
-1.47804e-12
3.67546e-12
-1.26336e-12
4.68058e-12
-1.07413e-12
5.70094e-12
-8.39675e-13
6.72388e-12
-5.56574e-13
7.7204e-12
-2.31702e-13
8.66952e-12
1.02801e-13
9.56975e-12
4.08167e-13
1.04123e-11
6.65124e-13
1.1172e-11
8.46034e-13
1.18442e-11
9.20469e-13
1.24449e-11
8.86668e-13
1.29686e-11
8.06927e-13
1.34173e-11
6.32998e-13
1.36905e-11
4.42643e-13
1.37641e-11
3.09497e-13
1.35607e-11
3.04014e-13
1.29734e-11
4.91173e-13
1.18485e-11
8.447e-13
1.008e-11
9.6753e-13
7.39988e-12
1.15209e-12
3.36319e-12
2.37761e-14
-2.09599e-12
1.16136e-12
-1.89493e-12
2.74668e-12
-3.1158e-12
4.20584e-12
-2.93715e-12
5.62638e-12
-2.68385e-12
7.09543e-12
-2.54313e-12
8.59453e-12
-2.33872e-12
1.00824e-11
-2.0444e-12
1.15136e-11
-1.66288e-12
1.28231e-11
-1.2066e-12
1.39289e-11
-6.97665e-13
1.4777e-11
-1.82914e-13
1.53233e-11
2.99784e-13
1.55395e-11
7.04345e-13
1.53988e-11
1.02737e-12
1.49622e-11
1.24361e-12
1.42019e-11
1.39327e-12
1.31611e-11
1.48343e-12
1.18888e-11
1.58191e-12
1.04392e-11
1.75357e-12
8.86171e-12
2.06868e-12
7.17485e-12
2.53156e-12
5.40401e-12
2.73837e-12
3.58157e-12
2.97452e-12
1.36781e-12
2.23754e-12
-7.28184e-13
1.6368e-12
-3.53169e-12
3.60488e-12
-5.08381e-12
5.32424e-12
-4.65645e-12
6.9829e-12
-4.34246e-12
8.67196e-12
-4.23214e-12
1.03594e-11
-4.02607e-12
1.19843e-11
-3.66924e-12
1.34798e-11
-3.15835e-12
1.47831e-11
-2.50988e-12
1.58371e-11
-1.75157e-12
1.65711e-11
-9.16931e-13
1.69075e-11
-3.657e-14
1.67619e-11
8.50067e-13
1.61426e-11
1.64666e-12
1.50832e-11
2.30302e-12
1.36475e-11
2.82907e-12
1.18879e-11
3.24302e-12
9.94289e-12
3.52695e-12
7.92491e-12
3.77158e-12
5.97975e-12
4.01386e-12
4.23059e-12
4.28074e-12
2.78915e-12
4.17982e-12
1.78293e-12
3.98074e-12
7.42702e-13
3.27778e-12
1.45175e-14
1.98772e-12
-5.51935e-12
4.16426e-12
-7.26029e-12
6.00269e-12
-6.49481e-12
7.76525e-12
-6.10495e-12
9.52717e-12
-5.99399e-12
1.12505e-11
-5.74937e-12
1.28718e-11
-5.29045e-12
1.43232e-11
-4.60968e-12
1.55375e-11
-3.72414e-12
1.64513e-11
-2.66531e-12
1.70069e-11
-1.47239e-12
1.71626e-11
-1.92305e-13
1.6886e-11
1.12679e-12
1.60846e-11
2.44803e-12
1.47389e-11
3.64884e-12
1.29749e-11
4.59304e-12
1.09154e-11
5.30262e-12
8.6764e-12
5.76595e-12
6.42875e-12
6.01925e-12
4.38836e-12
6.05426e-12
2.70256e-12
5.96655e-12
1.50848e-12
5.37391e-12
9.2182e-13
4.5674e-12
3.94703e-13
3.8049e-12
4.09223e-13
2.23576e-12
-7.75505e-12
4.48638e-12
-9.51083e-12
6.33716e-12
-8.34551e-12
8.15839e-12
-7.92611e-12
9.90143e-12
-7.73695e-12
1.15797e-11
-7.42759e-12
1.31303e-11
-6.84095e-12
1.44906e-11
-5.96996e-12
1.56033e-11
-4.83668e-12
1.64135e-11
-3.47548e-12
1.68716e-11
-1.93039e-12
1.69341e-11
-2.54776e-13
1.65726e-11
1.48837e-12
1.57789e-11
3.24172e-12
1.44758e-11
4.95206e-12
1.26654e-11
6.40341e-12
1.05188e-11
7.44934e-12
8.19061e-12
8.09417e-12
6.02714e-12
8.18275e-12
3.85744e-12
8.22399e-12
2.02532e-12
7.7987e-12
8.34599e-13
6.56466e-12
3.16318e-13
5.08571e-12
1.33192e-14
4.10792e-12
4.22545e-13
2.41683e-12
-1.01718e-11
4.66831e-12
-1.17622e-11
6.49403e-12
-1.01711e-11
8.25998e-12
-9.69197e-12
1.00018e-11
-9.4787e-12
1.16093e-11
-9.03502e-12
1.30704e-11
-8.3019e-12
1.43372e-11
-7.23668e-12
1.53659e-11
-5.86537e-12
1.61188e-11
-4.22826e-12
1.65597e-11
-2.37118e-12
1.6653e-11
-3.4804e-13
1.63668e-11
1.77465e-12
1.56913e-11
3.91721e-12
1.46221e-11
6.02136e-12
1.30291e-11
7.9965e-12
1.10255e-11
9.45291e-12
8.76458e-12
1.03552e-11
6.27518e-12
1.06722e-11
4.37829e-12
1.01209e-11
2.41695e-12
9.76007e-12
8.03861e-13
8.17776e-12
1.158e-13
5.77378e-12
-2.07891e-13
4.43163e-12
2.14658e-13
2.54553e-12
-1.27173e-11
4.75876e-12
-1.39754e-11
6.53922e-12
-1.19515e-11
8.24418e-12
-1.13968e-11
9.94379e-12
-1.11782e-11
1.15607e-11
-1.06519e-11
1.29488e-11
-9.68987e-12
1.41463e-11
-8.43414e-12
1.51279e-11
-6.84689e-12
1.58755e-11
-4.97574e-12
1.63718e-11
-2.86744e-12
1.65956e-11
-5.71776e-13
1.65176e-11
1.85277e-12
1.61049e-11
4.32994e-12
1.53524e-11
6.77391e-12
1.42312e-11
9.11784e-12
1.24812e-11
1.12029e-11
1.03212e-11
1.25152e-11
7.89236e-12
1.31011e-11
5.50312e-12
1.25102e-11
3.59861e-12
1.16646e-11
1.51365e-12
1.02628e-11
3.94897e-13
6.89257e-12
-2.0918e-13
5.03573e-12
5.48384e-15
2.63233e-12
-1.53495e-11
4.79984e-12
-1.61428e-11
6.55322e-12
-1.37048e-11
8.23318e-12
-1.30767e-11
9.88081e-12
-1.28257e-11
1.14748e-11
-1.22458e-11
1.29763e-11
-1.11912e-11
1.41599e-11
-9.61768e-12
1.51602e-11
-7.84708e-12
1.59694e-11
-5.78487e-12
1.65902e-11
-3.48809e-12
1.70172e-11
-9.98794e-13
1.72308e-11
1.63929e-12
1.71872e-11
4.37355e-12
1.68325e-11
7.12872e-12
1.61104e-11
9.84003e-12
1.4913e-11
1.24003e-11
1.30669e-11
1.43614e-11
1.07221e-11
1.54459e-11
7.778e-12
1.54544e-11
5.3381e-12
1.41045e-11
3.0889e-12
1.2512e-11
1.08793e-12
8.89357e-12
-3.81965e-15
6.12751e-12
1.67094e-15
2.67968e-12
-1.80291e-11
4.81011e-12
-1.82731e-11
6.57256e-12
-1.54671e-11
8.28311e-12
-1.47871e-11
9.97033e-12
-1.45129e-11
1.16166e-11
-1.38919e-11
1.31895e-11
-1.27641e-11
1.45965e-11
-1.10245e-11
1.57228e-11
-8.9733e-12
1.67039e-11
-6.76587e-12
1.75422e-11
-4.32635e-12
1.82455e-11
-1.70202e-12
1.88093e-11
1.07555e-12
1.92006e-11
3.98228e-12
1.93454e-11
6.98401e-12
1.9162e-11
1.00235e-11
1.85196e-11
1.30428e-11
1.70668e-11
1.58142e-11
1.48038e-11
1.77089e-11
1.1665e-11
1.85932e-11
8.17231e-12
1.75973e-11
5.30845e-12
1.53759e-11
2.38509e-12
1.1817e-11
4.61142e-13
8.05149e-12
4.6282e-13
2.68538e-12
-2.07143e-11
4.79569e-12
-2.03833e-11
6.61476e-12
-1.7286e-11
8.42754e-12
-1.65998e-11
1.02595e-11
-1.63447e-11
1.20969e-11
-1.57292e-11
1.39003e-11
-1.45674e-11
1.56179e-11
-1.2742e-11
1.70768e-11
-1.04321e-11
1.84155e-11
-8.10452e-12
1.96273e-11
-5.53808e-12
2.07167e-11
-2.79139e-12
2.16922e-11
1.00097e-13
2.25422e-11
3.13235e-12
2.32063e-11
6.31993e-12
2.35612e-11
9.66868e-12
2.34212e-11
1.31828e-11
2.25426e-11
1.66929e-11
2.04962e-11
1.97553e-11
1.72761e-11
2.18134e-11
1.25237e-11
2.23497e-11
8.10895e-12
1.97907e-11
4.45916e-12
1.54668e-11
1.20651e-12
1.13042e-11
1.66933e-12
2.64608e-12
-2.33603e-11
4.75845e-12
-2.24955e-11
6.69115e-12
-1.92186e-11
8.69379e-12
-1.86023e-11
1.07941e-11
-1.8445e-11
1.29856e-11
-1.79206e-11
1.5225e-11
-1.68067e-11
1.74311e-11
-1.49482e-11
1.94879e-11
-1.24888e-11
2.146e-11
-1.00766e-11
2.33028e-11
-7.3808e-12
2.49921e-11
-4.48071e-12
2.65294e-11
-1.43716e-12
2.79099e-11
1.75189e-12
2.90944e-11
5.13548e-12
3.00308e-11
8.73234e-12
3.04665e-11
1.27472e-11
2.99796e-11
1.71798e-11
2.81139e-11
2.16211e-11
2.45674e-11
2.53599e-11
1.93667e-11
2.75504e-11
1.27274e-11
2.64301e-11
7.55976e-12
2.06344e-11
2.25306e-12
1.66109e-11
3.9224e-12
2.55925e-12
-2.59195e-11
4.70071e-12
-2.4637e-11
6.81274e-12
-2.13306e-11
9.10576e-12
-2.08953e-11
1.16144e-11
-2.09536e-11
1.43394e-11
-2.06457e-11
1.7232e-11
-1.96992e-11
2.01758e-11
-1.78919e-11
2.31604e-11
-1.54734e-11
2.61432e-11
-1.30595e-11
2.90197e-11
-1.02573e-11
3.17107e-11
-7.17161e-12
3.42214e-11
-3.94788e-12
3.65245e-11
-5.51162e-13
3.84608e-11
3.19918e-12
3.97521e-11
7.44103e-12
4.03191e-11
1.21802e-11
3.99456e-11
1.75534e-11
3.81587e-11
2.3408e-11
3.43556e-11
2.9163e-11
2.82571e-11
3.3649e-11
1.99604e-11
3.47268e-11
1.14219e-11
2.91729e-11
4.13325e-12
2.38996e-11
8.05566e-12
2.4248e-12
-2.83444e-11
4.62823e-12
-2.68404e-11
6.9934e-12
-2.36959e-11
9.68796e-12
-2.359e-11
1.27555e-11
-2.40212e-11
1.62048e-11
-2.40951e-11
1.99755e-11
-2.34699e-11
2.39071e-11
-2.18236e-11
2.82017e-11
-1.9768e-11
3.26127e-11
-1.74704e-11
3.70906e-11
-1.47353e-11
4.14998e-11
-1.15809e-11
4.5445e-11
-7.89304e-12
4.86568e-11
-3.763e-12
5.1106e-11
7.49976e-13
5.27885e-11
5.75853e-12
5.35587e-11
1.141e-11
5.32091e-11
1.7903e-11
5.12976e-11
2.53194e-11
4.71165e-11
3.33441e-11
3.99087e-11
4.08569e-11
2.95984e-11
4.50371e-11
1.76769e-11
4.10945e-11
7.23978e-12
3.43367e-11
1.52954e-11
2.24518e-12
-3.05897e-11
4.54848e-12
-2.9144e-11
7.24446e-12
-2.63921e-11
1.04529e-11
-2.67987e-11
1.42259e-11
-2.77944e-11
1.85828e-11
-2.84522e-11
2.34465e-11
-2.83338e-11
2.86227e-11
-2.7e-11
3.46142e-11
-2.57596e-11
4.10268e-11
-2.38832e-11
4.75205e-11
-2.1229e-11
5.37462e-11
-1.78067e-11
5.95057e-11
-1.36525e-11
6.45187e-11
-8.77605e-12
6.84529e-11
-3.18423e-12
7.10626e-11
3.14883e-12
7.21564e-11
1.03162e-11
7.16083e-11
1.84511e-11
6.92337e-11
2.7694e-11
6.43838e-11
3.81941e-11
5.60639e-11
4.91768e-11
4.34756e-11
5.76254e-11
2.79377e-11
5.66324e-11
1.14126e-11
5.08618e-11
2.67081e-11
2.02189e-12
-3.26119e-11
4.46322e-12
-3.15858e-11
7.56441e-12
-2.94938e-11
1.13762e-11
-3.0611e-11
1.59219e-11
-3.23405e-11
2.12235e-11
-3.37542e-11
2.7159e-11
-3.42698e-11
3.42343e-11
-3.40756e-11
4.19188e-11
-3.34443e-11
5.00337e-11
-3.19983e-11
5.84452e-11
-2.96406e-11
6.69435e-11
-2.63051e-11
7.5198e-11
-2.19071e-11
8.28054e-11
-1.63835e-11
8.93509e-11
-9.72972e-12
9.43402e-11
-1.84047e-12
9.72704e-11
7.38603e-12
9.75526e-11
1.81689e-11
9.46632e-11
3.05834e-11
8.87784e-11
4.40789e-11
7.89537e-11
5.90015e-11
6.37847e-11
7.27945e-11
4.32605e-11
7.71566e-11
1.84919e-11
7.56304e-11
4.51999e-11
1.74951e-12
-3.43621e-11
4.29818e-12
-3.41353e-11
7.80348e-12
-3.3e-11
1.23329e-11
-3.51412e-11
1.79812e-11
-3.79895e-11
2.45782e-11
-4.03518e-11
3.20897e-11
-4.17818e-11
4.0887e-11
-4.28734e-11
5.05388e-11
-4.30964e-11
6.08904e-11
-4.23502e-11
7.17563e-11
-4.05067e-11
8.2881e-11
-3.74298e-11
9.39701e-11
-3.29964e-11
1.04647e-10
-2.7061e-11
1.14335e-10
-1.94169e-11
1.22514e-10
-1.00199e-11
1.28511e-10
1.38899e-12
1.31623e-10
1.50572e-11
1.30795e-10
3.14108e-11
1.24691e-10
5.01835e-11
1.13497e-10
7.01954e-11
9.55773e-11
9.0714e-11
6.92819e-11
1.03452e-10
3.16108e-11
1.13302e-10
7.68107e-11
1.47795e-12
-3.5841e-11
4.31023e-12
-3.69689e-11
8.55761e-12
-3.72487e-11
1.40282e-11
-4.06129e-11
2.06408e-11
-4.46032e-11
2.83085e-11
-4.80204e-11
3.77062e-11
-5.11802e-11
4.83508e-11
-5.35185e-11
6.01232e-11
-5.48692e-11
7.28619e-11
-5.50893e-11
8.63677e-11
-5.40127e-11
1.0037e-10
-5.14326e-11
1.14463e-10
-4.7089e-11
1.28304e-10
-4.09019e-11
1.4169e-10
-3.28038e-11
1.53821e-10
-2.21504e-11
1.64209e-10
-8.99944e-12
1.72183e-10
7.08334e-12
1.76839e-10
2.67552e-11
1.75538e-10
5.14842e-11
1.66465e-10
7.92684e-11
1.47635e-10
1.09544e-10
1.17344e-10
1.33742e-10
6.1344e-11
1.69302e-10
1.38155e-10
1.34074e-12
-3.71832e-11
4.61704e-12
-4.02469e-11
9.4898e-12
-4.21231e-11
1.58124e-11
-4.6937e-11
2.329e-11
-5.2082e-11
3.2782e-11
-5.75135e-11
4.38597e-11
-6.22586e-11
5.63877e-11
-6.60472e-11
7.02635e-11
-6.87454e-11
8.53562e-11
-7.01823e-11
1.01501e-10
-7.01581e-11
1.18456e-10
-6.83872e-11
1.35645e-10
-6.42781e-11
1.52573e-10
-5.78303e-11
1.69212e-10
-4.94427e-11
1.85284e-10
-3.8223e-11
2.00196e-10
-2.39107e-11
2.13622e-10
-6.34279e-12
2.26122e-10
1.42547e-11
2.37878e-10
3.97287e-11
2.42146e-10
7.50002e-11
2.35011e-10
1.16678e-10
2.08505e-10
1.60248e-10
1.40617e-10
2.3719e-10
2.78771e-10
1.31251e-12
-3.84973e-11
5.03819e-12
-4.39745e-11
1.07458e-11
-4.78325e-11
1.79905e-11
-5.41834e-11
2.75311e-11
-6.1624e-11
3.8765e-11
-6.87485e-11
5.17015e-11
-7.5196e-11
6.62661e-11
-8.06124e-11
8.23004e-11
-8.47803e-11
9.96205e-11
-8.75026e-11
1.18019e-10
-8.85569e-11
1.37292e-10
-8.76599e-11
1.57487e-10
-8.44731e-11
1.78454e-10
-7.87983e-11
1.9905e-10
-7.00383e-11
2.18248e-10
-5.74212e-11
2.3715e-10
-4.28128e-11
2.55164e-10
-2.43572e-11
2.74402e-10
-4.98348e-12
2.97192e-10
1.69386e-11
3.28902e-10
4.32907e-11
3.68023e-10
7.75559e-11
4.0711e-10
1.21161e-10
3.89208e-10
2.55092e-10
6.67979e-10
5.98372e-13
-3.90975e-11
3.79956e-12
-4.71777e-11
8.84682e-12
-5.28816e-11
1.57049e-11
-6.10431e-11
2.40649e-11
-6.99854e-11
3.40512e-11
-7.87358e-11
4.56495e-11
-8.67951e-11
5.8848e-11
-9.38115e-11
7.36091e-11
-9.95417e-11
8.98848e-11
-1.03779e-10
1.07627e-10
-1.06299e-10
1.26808e-10
-1.06841e-10
1.4745e-10
-1.05114e-10
1.69476e-10
-1.00825e-10
1.93012e-10
-9.35749e-11
2.18719e-10
-8.31278e-11
2.45255e-10
-6.93492e-11
2.72189e-10
-5.12905e-11
3.00722e-10
-3.35168e-11
3.30369e-10
-1.27086e-11
3.61195e-10
1.24643e-11
3.98741e-10
4.00091e-11
4.56591e-10
6.33106e-11
6.48156e-10
6.35263e-11
3.17994e-11
1.28434e-09
7.54382e-13
-3.98536e-11
4.41914e-12
-5.08445e-11
1.02198e-11
-5.86842e-11
1.79177e-11
-6.87426e-11
2.73761e-11
-7.94452e-11
3.86102e-11
-8.99709e-11
5.1609e-11
-9.97946e-11
6.63548e-11
-1.08558e-10
8.28266e-11
-1.16014e-10
1.01007e-10
-1.21959e-10
1.20893e-10
-1.26185e-10
1.42501e-10
-1.28449e-10
1.6587e-10
-1.28484e-10
1.91052e-10
-1.26007e-10
2.1821e-10
-1.20733e-10
2.47522e-10
-1.12439e-10
2.79163e-10
-1.0099e-10
3.14463e-10
-8.65906e-11
3.50367e-10
-6.94215e-11
3.89399e-10
-5.17407e-11
4.33497e-10
-3.16336e-11
4.86034e-10
-1.25289e-11
5.50626e-10
-1.28131e-12
6.24396e-10
-1.02445e-11
-3.98635e-11
6.96059e-10
9.07699e-13
-4.07631e-11
4.99594e-12
-5.49347e-11
1.14478e-11
-6.51379e-11
1.99582e-11
-7.72546e-11
3.04296e-11
-8.99178e-11
4.28255e-11
-1.02368e-10
5.71246e-11
-1.14094e-10
7.33103e-11
-1.24744e-10
9.13737e-11
-1.34077e-10
1.1132e-10
-1.41906e-10
1.33176e-10
-1.48041e-10
1.56998e-10
-1.5227e-10
1.82872e-10
-1.54358e-10
2.10921e-10
-1.54055e-10
2.41311e-10
-1.51123e-10
2.74252e-10
-1.4538e-10
3.10029e-10
-1.36768e-10
3.48862e-10
-1.25424e-10
3.91124e-10
-1.11684e-10
4.35855e-10
-9.64713e-11
4.84368e-10
-8.01466e-11
5.36353e-10
-6.45144e-11
5.87661e-10
-5.25902e-11
6.23079e-10
-4.5662e-11
-3.4211e-11
6.17426e-10
1.04428e-12
-4.18092e-11
5.49062e-12
-5.9383e-11
1.25054e-11
-7.21546e-11
2.17569e-11
-8.65075e-11
3.31252e-11
-1.01287e-10
4.65543e-11
-1.15798e-10
6.20121e-11
-1.29552e-10
7.94796e-11
-1.42212e-10
9.89538e-11
-1.53551e-10
1.20452e-10
-1.63404e-10
1.44019e-10
-1.71607e-10
1.69729e-10
-1.7798e-10
1.97693e-10
-1.82322e-10
2.28056e-10
-1.84418e-10
2.60996e-10
-1.84063e-10
2.96714e-10
-1.81098e-10
3.35396e-10
-1.7545e-10
3.77144e-10
-1.67171e-10
4.21947e-10
-1.56488e-10
4.69179e-10
-1.43703e-10
5.18176e-10
-1.29144e-10
5.66658e-10
-1.12997e-10
6.08841e-10
-9.47734e-11
6.33714e-10
-7.0535e-11
-2.73067e-11
6.26809e-10
1.14611e-12
-4.2957e-11
5.86964e-12
-6.41085e-11
1.33403e-11
-7.9627e-11
2.32036e-11
-9.63723e-11
3.53178e-11
-1.13403e-10
4.96094e-11
-1.3009e-10
6.60343e-11
-1.45978e-10
8.45678e-11
-1.60745e-10
1.05205e-10
-1.74189e-10
1.27965e-10
-1.86163e-10
1.52893e-10
-1.96535e-10
1.80065e-10
-2.05153e-10
2.09588e-10
-2.11844e-10
2.41594e-10
-2.16423e-10
2.76232e-10
-2.18702e-10
3.13646e-10
-2.18512e-10
3.53924e-10
-2.15728e-10
3.97024e-10
-2.10271e-10
4.42632e-10
-2.02096e-10
4.90014e-10
-1.91086e-10
5.37723e-10
-1.76853e-10
5.832e-10
-1.58474e-10
6.21847e-10
-1.33421e-10
6.47482e-10
-9.61697e-11
-3.60923e-11
6.56267e-10
1.21165e-12
-4.41704e-11
6.13335e-12
-6.90322e-11
1.39491e-11
-8.74445e-11
2.42876e-11
-1.06712e-10
3.69882e-11
-1.26104e-10
5.19605e-11
-1.45063e-10
6.91476e-11
-1.63165e-10
8.85148e-11
-1.80112e-10
1.10049e-10
-1.95722e-10
1.3376e-10
-2.09874e-10
1.59684e-10
-2.22458e-10
1.8788e-10
-2.33349e-10
2.18432e-10
-2.42396e-10
2.51437e-10
-2.49428e-10
2.86991e-10
-2.54256e-10
3.25163e-10
-2.56684e-10
3.65943e-10
-2.56508e-10
4.09166e-10
-2.53494e-10
4.54399e-10
-2.47328e-10
5.00806e-10
-2.37493e-10
5.46995e-10
-2.23043e-10
5.90797e-10
-2.02277e-10
6.29477e-10
-1.72101e-10
6.60476e-10
-1.27169e-10
-5.98099e-11
6.84194e-10
1.24288e-12
-4.5415e-11
6.28772e-12
-7.4079e-11
1.43415e-11
-9.55e-11
2.50219e-11
-1.17394e-10
3.81519e-11
-1.39235e-10
5.36258e-11
-1.60538e-10
7.13727e-11
-1.80912e-10
9.1345e-11
-2.00085e-10
1.13516e-10
-2.17893e-10
1.37881e-10
-2.34239e-10
1.64455e-10
-2.49032e-10
1.93274e-10
-2.62167e-10
2.24386e-10
-2.73507e-10
2.57843e-10
-2.82885e-10
2.93687e-10
-2.90099e-10
3.31915e-10
-2.94912e-10
3.72443e-10
-2.97036e-10
4.15044e-10
-2.96094e-10
4.59271e-10
-2.91556e-10
5.04386e-10
-2.82608e-10
5.49313e-10
-2.6797e-10
5.92679e-10
-2.45642e-10
6.33156e-10
-2.12578e-10
6.70406e-10
-1.64419e-10
-9.57801e-11
7.06376e-10
1.24304e-12
-4.66598e-11
6.34321e-12
-7.91811e-11
1.45365e-11
-1.03695e-10
2.54351e-11
-1.28294e-10
3.88487e-11
-1.5265e-10
5.46573e-11
-1.76347e-10
7.27762e-11
-1.99032e-10
9.31432e-11
-2.20452e-10
1.15716e-10
-2.40465e-10
1.40469e-10
-2.58992e-10
1.67396e-10
-2.75958e-10
1.96503e-10
-2.91273e-10
2.27802e-10
-3.04806e-10
2.61304e-10
-3.16387e-10
2.97e-10
-3.25794e-10
3.34839e-10
-3.32751e-10
3.74699e-10
-3.36896e-10
4.16348e-10
-3.37744e-10
4.59411e-10
-3.34619e-10
5.0335e-10
-3.26547e-10
5.47501e-10
-3.12121e-10
5.91217e-10
-2.89358e-10
6.34219e-10
-2.55581e-10
6.77262e-10
-2.07462e-10
-1.4138e-10
7.22862e-10
1.21694e-12
-4.78785e-11
6.31279e-12
-8.42789e-11
1.4559e-11
-1.11943e-10
2.5566e-11
-1.39303e-10
3.91332e-11
-1.66218e-10
5.51287e-11
-1.92343e-10
7.34542e-11
-2.17357e-10
9.40329e-11
-2.4103e-10
1.16806e-10
-2.63238e-10
1.41729e-10
-2.83914e-10
1.68771e-10
-3.03e-10
1.97912e-10
-3.20413e-10
2.29132e-10
-3.36026e-10
2.62409e-10
-3.49663e-10
2.97701e-10
-3.61086e-10
3.34932e-10
-3.69982e-10
3.73978e-10
-3.75941e-10
4.14647e-10
-3.78413e-10
4.56679e-10
-3.76651e-10
4.99767e-10
-3.69635e-10
5.43638e-10
-3.55992e-10
5.88208e-10
-3.33928e-10
6.33869e-10
-3.01242e-10
6.81903e-10
-2.55496e-10
-1.94394e-10
7.34917e-10
1.16925e-12
-4.90496e-11
6.21133e-12
-8.9323e-11
1.44368e-11
-1.2017e-10
2.54584e-11
-1.50326e-10
3.90686e-11
-1.79829e-10
5.51249e-11
-2.084e-10
7.35175e-11
-2.3575e-10
9.41567e-11
-2.61669e-10
1.16968e-10
-2.86049e-10
1.41889e-10
-3.08835e-10
1.68871e-10
-3.29981e-10
1.97869e-10
-3.49411e-10
2.28842e-10
-3.66999e-10
2.61745e-10
-3.82566e-10
2.96521e-10
-3.95861e-10
3.33093e-10
-4.06554e-10
3.71359e-10
-4.14207e-10
4.11193e-10
-4.18248e-10
4.52467e-10
-4.17924e-10
4.95087e-10
-4.12256e-10
5.39091e-10
-3.99997e-10
5.84788e-10
-3.79625e-10
6.32964e-10
-3.49418e-10
6.85111e-10
-3.07643e-10
-2.52912e-10
7.43628e-10
1.10548e-12
-5.01569e-11
6.0537e-12
-9.42732e-11
1.41985e-11
-1.28317e-10
2.51577e-11
-1.61286e-10
3.87193e-11
-1.93392e-10
5.47334e-11
-2.24414e-10
7.30806e-11
-2.54097e-10
9.36602e-11
-2.82249e-10
1.16385e-10
-3.08773e-10
1.4118e-10
-3.3363e-10
1.6798e-10
-3.5678e-10
1.96725e-10
-3.78155e-10
2.2736e-10
-3.97634e-10
2.5983e-10
-4.15036e-10
2.94077e-10
-4.30108e-10
3.3004e-10
-4.42516e-10
3.67656e-10
-4.51823e-10
4.06876e-10
-4.57467e-10
4.4769e-10
-4.58738e-10
4.90183e-10
-4.54749e-10
5.34617e-10
-4.44431e-10
5.81545e-10
-4.26553e-10
6.31946e-10
-3.99819e-10
6.87354e-10
-3.63051e-10
-3.15467e-10
7.49909e-10
1.03014e-12
-5.11888e-11
5.85455e-12
-9.90996e-11
1.38716e-11
-1.36336e-10
2.47072e-11
-1.72123e-10
3.81478e-11
-2.06833e-10
5.40381e-11
-2.40305e-10
7.2252e-11
-2.72311e-10
9.26808e-11
-3.02677e-10
1.15229e-10
-3.31321e-10
1.3981e-10
-3.58211e-10
1.6635e-10
-3.83319e-10
1.9478e-10
-4.06585e-10
2.25041e-10
-4.27894e-10
2.57076e-10
-4.47071e-10
2.90839e-10
-4.63871e-10
3.26291e-10
-4.77969e-10
3.63417e-10
-4.88949e-10
4.02239e-10
-4.96289e-10
4.42851e-10
-4.9935e-10
4.85469e-10
-4.97367e-10
5.30499e-10
-4.89461e-10
5.78624e-10
-4.74678e-10
6.3089e-10
-4.52086e-10
6.88764e-10
-4.20925e-10
-3.80828e-10
7.54125e-10
9.48036e-13
-5.21387e-11
5.62675e-12
-1.0378e-10
1.34808e-11
-1.44192e-10
2.41463e-11
-1.8279e-10
3.741e-11
-2.20098e-10
5.31143e-11
-2.5601e-10
7.11287e-11
-2.90326e-10
9.13395e-11
-3.22888e-10
1.13645e-10
-3.53626e-10
1.37956e-10
-3.8252e-10
1.6419e-10
-4.09553e-10
1.92277e-10
-4.34672e-10
2.22159e-10
-4.57774e-10
2.53786e-10
-4.78697e-10
2.87127e-10
-4.97211e-10
3.22174e-10
-5.13015e-10
3.58954e-10
-5.25729e-10
3.97552e-10
-5.34887e-10
4.38141e-10
-5.39939e-10
4.81024e-10
-5.4025e-10
5.26689e-10
-5.35126e-10
5.7587e-10
-5.23859e-10
6.29595e-10
-5.05811e-10
6.89208e-10
-4.80539e-10
-4.47953e-10
7.56333e-10
8.62648e-13
-5.30032e-11
5.38173e-12
-1.08302e-10
1.30477e-11
-1.51859e-10
2.35086e-11
-1.93253e-10
3.65543e-11
-2.33145e-10
5.20261e-11
-2.71482e-10
6.97923e-11
-3.08092e-10
8.97369e-11
-3.42832e-10
1.11756e-10
-3.75645e-10
1.35758e-10
-4.06521e-10
1.6166e-10
-4.35455e-10
1.89394e-10
-4.62405e-10
2.18906e-10
-4.87285e-10
2.50158e-10
-5.09949e-10
2.83137e-10
-5.3019e-10
3.17863e-10
-5.4774e-10
3.544e-10
-5.62266e-10
3.92883e-10
-5.7337e-10
4.33536e-10
-5.80592e-10
4.76715e-10
-5.83429e-10
5.22943e-10
-5.81354e-10
5.7295e-10
-5.73865e-10
6.27698e-10
-5.60559e-10
6.88383e-10
-5.41224e-10
-5.15958e-10
7.56388e-10
7.7749e-13
-5.37826e-11
5.1285e-12
-1.12655e-10
1.25896e-11
-1.59322e-10
2.28221e-11
-2.03487e-10
3.56196e-11
-2.45943e-10
5.08255e-11
-2.86689e-10
6.8308e-11
-3.25575e-10
8.79517e-11
-3.62476e-10
1.09653e-10
-3.97346e-10
1.33321e-10
-4.30188e-10
1.58875e-10
-4.61008e-10
1.86252e-10
-4.89781e-10
2.15404e-10
-5.16437e-10
2.46306e-10
-5.40851e-10
2.78962e-10
-5.62846e-10
3.13416e-10
-5.82194e-10
3.49762e-10
-5.98612e-10
3.88166e-10
-6.11773e-10
4.28885e-10
-6.21311e-10
4.72296e-10
-6.2684e-10
5.18922e-10
-6.27981e-10
5.69457e-10
-6.244e-10
6.24772e-10
-6.15874e-10
6.85909e-10
-6.0236e-10
-5.84078e-10
7.54028e-10
6.94598e-13
-5.4479e-11
4.87444e-12
-1.16837e-10
1.21204e-11
-1.6657e-10
2.21078e-11
-2.13475e-10
3.46364e-11
-2.58473e-10
4.95517e-11
-3.01604e-10
6.67248e-11
-3.42748e-10
8.60421e-11
-3.81793e-10
1.07402e-10
-4.18706e-10
1.30717e-10
-4.53502e-10
1.5591e-10
-4.86201e-10
1.82923e-10
-5.16794e-10
2.11716e-10
-5.4523e-10
2.42277e-10
-5.71411e-10
2.74623e-10
-5.95192e-10
3.08815e-10
-6.16386e-10
3.44968e-10
-6.34765e-10
3.83265e-10
-6.5007e-10
4.23976e-10
-6.62023e-10
4.67479e-10
-6.70343e-10
5.14271e-10
-6.74773e-10
5.6499e-10
-6.75119e-10
6.20406e-10
-6.71291e-10
6.8141e-10
-6.63364e-10
-6.51634e-10
7.48966e-10
6.16169e-13
-5.50971e-11
4.62458e-12
-1.20847e-10
1.16499e-11
-1.73597e-10
2.13819e-11
-2.23209e-10
3.36262e-11
-2.70718e-10
4.82333e-11
-3.16212e-10
6.50771e-11
-3.59592e-10
8.40475e-11
-4.00763e-10
1.05047e-10
-4.39704e-10
1.2799e-10
-4.76444e-10
1.52806e-10
-5.11016e-10
1.79441e-10
-5.43429e-10
2.07865e-10
-5.73653e-10
2.38073e-10
-6.01618e-10
2.70092e-10
-6.27212e-10
3.03995e-10
-6.50289e-10
3.39906e-10
-6.70676e-10
3.78014e-10
-6.88178e-10
4.18588e-10
-7.02596e-10
4.61985e-10
-7.1374e-10
5.08667e-10
-7.21456e-10
5.59201e-10
-7.25653e-10
6.14254e-10
-7.26344e-10
6.74576e-10
-7.23686e-10
-7.18019e-10
7.4096e-10
5.42969e-13
-5.56419e-11
4.38265e-12
-1.24689e-10
1.11849e-11
-1.80401e-10
2.06544e-11
-2.3268e-10
3.26042e-11
-2.82669e-10
4.68889e-11
-3.30497e-10
6.33871e-11
-3.7609e-10
8.19925e-11
-4.19368e-10
1.02611e-10
-4.60323e-10
1.25163e-10
-4.98995e-10
1.49581e-10
-5.35433e-10
1.75817e-10
-5.69664e-10
2.03846e-10
-6.01681e-10
2.33667e-10
-6.31439e-10
2.65317e-10
-6.58861e-10
2.98871e-10
-6.83842e-10
3.34454e-10
-7.06259e-10
3.72252e-10
-7.25975e-10
4.12516e-10
-7.42861e-10
4.55579e-10
-7.56802e-10
5.0185e-10
-7.67727e-10
5.51823e-10
-7.75626e-10
6.06066e-10
-7.80587e-10
6.65197e-10
-7.82817e-10
-7.82681e-10
7.2986e-10
4.76096e-13
-5.61199e-11
4.15056e-12
-1.28365e-10
1.07295e-11
-1.86982e-10
1.99322e-11
-2.41884e-10
3.15787e-11
-2.94316e-10
4.55295e-11
-3.44448e-10
6.1667e-11
-3.92227e-10
7.98896e-11
-4.3759e-10
1.00108e-10
-4.8054e-10
1.22245e-10
-5.21131e-10
1.46238e-10
-5.59425e-10
1.72042e-10
-5.95468e-10
1.99636e-10
-6.29274e-10
2.29022e-10
-6.60825e-10
2.60238e-10
-6.90076e-10
2.93357e-10
-7.16961e-10
3.28499e-10
-7.41401e-10
3.65836e-10
-7.63312e-10
4.05598e-10
-7.82623e-10
4.48078e-10
-7.99282e-10
4.93634e-10
-8.13282e-10
5.42683e-10
-8.24676e-10
5.95696e-10
-8.336e-10
6.53175e-10
-8.40296e-10
-8.45134e-10
7.15628e-10
4.15394e-13
-5.65372e-11
3.92946e-12
-1.31881e-10
1.02856e-11
-1.9334e-10
1.9218e-11
-2.50817e-10
3.05546e-11
-3.05654e-10
4.41601e-11
-3.58054e-10
5.99224e-11
-4.0799e-10
7.77437e-11
-4.55411e-10
9.75383e-11
-5.00334e-10
1.19233e-10
-5.42825e-10
1.42767e-10
-5.82959e-10
1.681e-10
-6.208e-10
1.95208e-10
-6.56382e-10
2.24096e-10
-6.89712e-10
2.54797e-10
-7.20777e-10
2.87379e-10
-7.49543e-10
3.21951e-10
-7.75972e-10
3.58664e-10
-8.00025e-10
3.97719e-10
-8.21678e-10
4.39369e-10
-8.40932e-10
4.83913e-10
-8.57827e-10
5.31698e-10
-8.7246e-10
5.83101e-10
-8.85003e-10
6.38519e-10
-8.95715e-10
-9.04957e-10
6.98342e-10
3.61236e-13
-5.69004e-11
3.71925e-12
-1.35242e-10
9.85373e-12
-1.99476e-10
1.85132e-11
-2.59478e-10
2.95324e-11
-3.16674e-10
4.27821e-11
-3.71304e-10
5.81538e-11
-4.23361e-10
7.55538e-11
-4.72811e-10
9.48999e-11
-5.1968e-10
1.16121e-10
-5.64045e-10
1.39159e-10
-6.05996e-10
1.63971e-10
-6.45612e-10
1.90536e-10
-6.82946e-10
2.18853e-10
-7.18029e-10
2.48949e-10
-7.50873e-10
2.80883e-10
-7.81477e-10
3.14746e-10
-8.09834e-10
3.50667e-10
-8.35946e-10
3.88815e-10
-8.59826e-10
4.29397e-10
-8.81514e-10
4.72658e-10
-9.01088e-10
5.18872e-10
-9.18674e-10
5.68334e-10
-9.34464e-10
6.21342e-10
-9.48723e-10
-9.61797e-10
6.78182e-10
3.12903e-13
-5.72152e-11
3.51961e-12
-1.3845e-10
9.43326e-12
-2.05392e-10
1.78166e-11
-2.67863e-10
2.85118e-11
-3.2737e-10
4.1394e-11
-3.84187e-10
5.63592e-11
-4.38326e-10
7.3317e-11
-4.89768e-10
9.21874e-11
-5.3855e-10
1.12901e-10
-5.84758e-10
1.354e-10
-6.28494e-10
1.59641e-10
-6.69852e-10
1.85599e-10
-7.08903e-10
2.13268e-10
-7.45697e-10
2.42665e-10
-7.8027e-10
2.73836e-10
-8.12647e-10
3.06854e-10
-8.42852e-10
3.41821e-10
-8.70913e-10
3.78872e-10
-8.96877e-10
4.18171e-10
-9.20813e-10
4.59905e-10
-9.42822e-10
5.04284e-10
-9.63053e-10
5.51524e-10
-9.81704e-10
6.01838e-10
-9.99037e-10
-1.01538e-09
6.55416e-10
2.70371e-13
-5.74875e-11
3.32949e-12
-1.41512e-10
9.02285e-12
-2.11087e-10
1.71269e-11
-2.75968e-10
2.74905e-11
-3.37734e-10
3.99938e-11
-3.9669e-10
5.45359e-11
-4.52868e-10
7.10293e-11
-5.06261e-10
8.9396e-11
-5.56916e-10
1.09567e-10
-6.04928e-10
1.31484e-10
-6.5041e-10
1.551e-10
-6.93468e-10
1.80386e-10
-7.34188e-10
2.07328e-10
-7.72639e-10
2.35934e-10
-8.08875e-10
2.66232e-10
-8.42945e-10
2.98275e-10
-8.74894e-10
3.32138e-10
-9.04777e-10
3.67922e-10
-9.32661e-10
4.05746e-10
-9.58637e-10
4.45747e-10
-9.82823e-10
4.88072e-10
-1.00538e-09
5.32867e-10
-1.0265e-09
5.80266e-10
-1.04644e-09
-1.06549e-09
6.3038e-10
2.32694e-13
-5.77221e-11
3.14802e-12
-1.44429e-10
8.62119e-12
-2.16562e-10
1.64422e-11
-2.83791e-10
2.64668e-11
-3.4776e-10
3.8579e-11
-4.08803e-10
5.26813e-11
-4.6697e-10
6.86882e-11
-5.22267e-10
8.65227e-11
-5.74749e-10
1.06116e-10
-6.2452e-10
1.27407e-10
-6.717e-10
1.50346e-10
-7.16406e-10
1.74897e-10
-7.58738e-10
2.01038e-10
-7.98779e-10
2.28763e-10
-8.366e-10
2.58086e-10
-8.72267e-10
2.89036e-10
-9.05844e-10
3.21663e-10
-9.37403e-10
3.56032e-10
-9.6703e-10
3.92222e-10
-9.94827e-10
4.30322e-10
-1.02092e-09
4.70421e-10
-1.04548e-09
5.12605e-10
-1.06868e-09
5.56937e-10
-1.09077e-09
-1.11201e-09
6.03455e-10
1.99736e-13
-5.79237e-11
2.97397e-12
-1.47205e-10
8.22672e-12
-2.21817e-10
1.57611e-11
-2.91326e-10
2.54388e-11
-3.57438e-10
3.71483e-11
-4.20513e-10
5.07943e-11
-4.80616e-10
6.6293e-11
-5.37765e-10
8.3568e-11
-5.92024e-10
1.02549e-10
-6.435e-10
1.23172e-10
-6.92323e-10
1.45385e-10
-7.38618e-10
1.69142e-10
-7.82495e-10
1.94412e-10
-8.24049e-10
2.21178e-10
-8.63365e-10
2.49433e-10
-9.00522e-10
2.79189e-10
-9.35599e-10
3.10467e-10
-9.68681e-10
3.43301e-10
-9.99863e-10
3.77731e-10
-1.02926e-09
4.13802e-10
-1.05699e-09
4.51553e-10
-1.08323e-09
4.91013e-10
-1.10814e-09
5.32188e-10
-1.13194e-09
-1.15487e-09
5.75052e-10
1.70536e-13
-5.80961e-11
2.80654e-12
-1.49843e-10
7.83841e-12
-2.2685e-10
1.50822e-11
-2.98572e-10
2.4406e-11
-3.66763e-10
3.57013e-11
-4.31808e-10
4.88756e-11
-4.9379e-10
6.38459e-11
-5.52735e-10
8.05355e-11
-6.08712e-10
9.88727e-11
-6.61836e-10
1.18791e-10
-7.12241e-10
1.40231e-10
-7.60057e-10
1.63141e-10
-8.05404e-10
1.8748e-10
-8.48387e-10
2.13217e-10
-8.89101e-10
2.40329e-10
-9.27634e-10
2.68806e-10
-9.64076e-10
2.98645e-10
-9.9852e-10
3.2985e-10
-1.03107e-09
3.62427e-10
-1.06183e-09
3.96381e-10
-1.09095e-09
4.31707e-10
-1.11855e-09
4.68385e-10
-1.14482e-09
5.06372e-10
-1.16993e-09
-1.19408e-09
5.45587e-10
1.44999e-13
-5.8243e-11
2.64477e-12
-1.52345e-10
7.45534e-12
-2.31663e-10
1.44053e-11
-3.05523e-10
2.33682e-11
-3.75726e-10
3.42395e-11
-4.4268e-10
4.6928e-11
-5.06479e-10
6.13517e-11
-5.67158e-10
7.74333e-11
-6.24793e-10
9.50987e-11
-6.79501e-10
1.14278e-10
-7.31419e-10
1.34907e-10
-7.80685e-10
1.56925e-10
-8.27422e-10
1.80282e-10
-8.71743e-10
2.04932e-10
-9.13751e-10
2.30839e-10
-9.53541e-10
2.57973e-10
-9.91209e-10
2.86306e-10
-1.02685e-09
3.15817e-10
-1.06058e-09
3.4648e-10
-1.0925e-09
3.78266e-10
-1.12273e-09
4.11133e-10
-1.15142e-09
4.45019e-10
-1.17871e-09
4.79839e-10
-1.20475e-09
-1.22971e-09
5.15469e-10
1.22278e-13
-5.83672e-11
2.48825e-12
-1.54713e-10
7.0773e-12
-2.36253e-10
1.37304e-11
-3.12177e-10
2.23272e-11
-3.84324e-10
3.27657e-11
-4.53118e-10
4.49567e-11
-5.18669e-10
5.88184e-11
-5.8102e-10
7.42725e-11
-6.40246e-10
9.1243e-11
-6.9647e-10
1.09656e-10
-7.49831e-10
1.29441e-10
-8.00469e-10
1.50531e-10
-8.48511e-10
1.72865e-10
-8.94077e-10
1.96386e-10
-9.37271e-10
2.21042e-10
-9.78197e-10
2.46785e-10
-1.01695e-09
2.73569e-10
-1.05364e-09
3.01346e-10
-1.08836e-09
3.30066e-10
-1.12122e-09
3.59668e-10
-1.15234e-09
3.9008e-10
-1.18183e-09
4.21206e-10
-1.20984e-09
4.52927e-10
-1.23647e-09
-1.26187e-09
4.85086e-10
1.02397e-13
-5.84715e-11
2.33644e-12