/*--------------------------------*- C++ -*----------------------------------*\
  =========                 |
  \\      /  F ield         | OpenFOAM: The Open Source CFD Toolbox
   \\    /   O peration     | Website:  https://openfoam.org
    \\  /    A nd           | Version:  13
     \\/     M anipulation  |
\*---------------------------------------------------------------------------*/
FoamFile
{
    format      ascii;
    class       surfaceScalarField;
    location    "8";
    object      phi;
}
// * * * * * * * * * * * * * * * * * * * * * * * * * * * * * * * * * * * * * //

dimensions      [0 3 -1 0 0 0 0];

internalField   nonuniform List<scalar> 
12590
(
-1.92972e-08
-3.16128e-09
1.83253e-08
-5.70655e-08
8.17233e-08
-7.75432e-08
1.46688e-07
-7.76445e-08
2.08788e-07
-7.14377e-08
2.65138e-07
-6.54868e-08
3.1865e-07
-6.07473e-08
3.68075e-07
-5.68906e-08
4.15328e-07
-5.31148e-08
4.58184e-07
-4.92715e-08
4.97159e-07
-4.47274e-08
5.31056e-07
-3.93272e-08
5.5831e-07
-3.2734e-08
5.78064e-07
-2.44396e-08
5.87075e-07
-1.42593e-08
5.85052e-07
-2.08102e-09
5.67974e-07
1.1985e-08
5.35126e-07
2.88988e-08
4.82752e-07
4.75852e-08
4.11144e-07
6.77293e-08
3.20018e-07
8.63269e-08
2.19764e-07
9.75003e-08
1.19189e-07
9.2878e-08
4.32034e-08
6.96154e-08
4.03068e-08
3.90415e-09
-2.51264e-08
5.72511e-08
-1.23966e-07
1.20815e-07
-1.51429e-07
1.82618e-07
-1.48616e-07
2.42264e-07
-1.38963e-07
2.99354e-07
-1.3001e-07
3.55344e-07
-1.22721e-07
4.09287e-07
-1.16781e-07
4.61677e-07
-1.10991e-07
5.1179e-07
-1.04453e-07
5.5886e-07
-9.65761e-08
6.0148e-07
-8.66834e-08
6.38271e-07
-7.40739e-08
6.67786e-07
-5.82174e-08
6.87923e-07
-3.87484e-08
6.96695e-07
-1.49024e-08
6.90828e-07
1.35907e-08
6.6964e-07
4.62853e-08
6.31395e-07
8.21002e-08
5.75843e-07
1.199e-07
5.01064e-07
1.57942e-07
4.02307e-07
1.92477e-07
2.78123e-07
2.15998e-07
1.32506e-07
2.08727e-07
1.7131e-07
2.63176e-08
-6.58705e-08
8.09757e-08
-1.88574e-07
1.35378e-07
-2.14323e-07
1.87586e-07
-2.08784e-07
2.39824e-07
-1.97952e-07
2.92421e-07
-1.88788e-07
3.458e-07
-1.81933e-07
3.99873e-07
-1.76079e-07
4.54361e-07
-1.69945e-07
5.0771e-07
-1.62451e-07
5.58925e-07
-1.52137e-07
6.06265e-07
-1.3807e-07
6.47572e-07
-1.1941e-07
6.80787e-07
-9.53312e-08
7.03257e-07
-6.52147e-08
7.12974e-07
-2.86378e-08
7.0779e-07
1.46089e-08
6.86766e-07
6.34683e-08
6.47955e-07
1.1711e-07
5.91098e-07
1.73156e-07
5.1615e-07
2.29217e-07
4.23435e-07
2.8339e-07
3.01966e-07
3.30895e-07
1.55985e-07
3.52567e-07
3.24844e-07
4.15022e-08
-1.19006e-07
9.03496e-08
-2.4648e-07
1.34165e-07
-2.65828e-07
1.77676e-07
-2.59379e-07
2.23803e-07
-2.50626e-07
2.73118e-07
-2.44217e-07
3.2637e-07
-2.40048e-07
3.82605e-07
-2.37007e-07
4.41108e-07
-2.32996e-07
5.00912e-07
-2.26077e-07
5.59824e-07
-2.14721e-07
6.15457e-07
-1.9733e-07
6.64961e-07
-1.72408e-07
7.05188e-07
-1.38993e-07
7.32596e-07
-9.6285e-08
7.44128e-07
-4.3984e-08
7.3664e-07
1.78782e-08
7.10008e-07
8.60246e-08
6.62599e-07
1.60237e-07
5.94925e-07
2.36535e-07
5.09285e-07
3.10875e-07
4.06221e-07
3.80113e-07
2.89672e-07
4.47703e-07
1.48285e-07
4.86448e-07
4.71687e-07
4.70627e-08
-1.76998e-07
8.66901e-08
-2.94406e-07
1.20714e-07
-3.07495e-07
1.56618e-07
-3.02598e-07
1.97516e-07
-2.97742e-07
2.44024e-07
-2.96215e-07
2.96446e-07
-2.97738e-07
3.55172e-07
-3.0011e-07
4.19534e-07
-3.00989e-07
4.8777e-07
-2.97926e-07
5.57549e-07
-2.87925e-07
6.25783e-07
-2.68498e-07
6.87893e-07
-2.37576e-07
7.395e-07
-1.93573e-07
7.75374e-07
-1.3545e-07
7.90825e-07
-6.32232e-08
7.81799e-07
2.25865e-08
7.48415e-07
1.14882e-07
6.89921e-07
2.14203e-07
6.08048e-07
3.13883e-07
5.06595e-07
4.07489e-07
3.94197e-07
4.90988e-07
2.66806e-07
5.65991e-07
1.32549e-07
6.18806e-07
6.01657e-07
4.39136e-08
-2.30864e-07
7.3035e-08
-3.32324e-07
9.79011e-08
-3.40153e-07
1.26153e-07
-3.38115e-07
1.60648e-07
-3.3881e-07
2.02539e-07
-3.44096e-07
2.53651e-07
-3.53358e-07
3.14194e-07
-3.64766e-07
3.84005e-07
-3.7474e-07
4.62174e-07
-3.79069e-07
5.45306e-07
-3.73955e-07
6.29192e-07
-3.55052e-07
7.07596e-07
-3.18736e-07
7.74107e-07
-2.62724e-07
8.21088e-07
-1.85668e-07
8.42255e-07
-8.82248e-08
8.31656e-07
2.84772e-08
7.89829e-07
1.52062e-07
7.17249e-07
2.82103e-07
6.1873e-07
4.07876e-07
5.0171e-07
5.2046e-07
3.7156e-07
6.14253e-07
2.42736e-07
6.96118e-07
1.07212e-07
7.46021e-07
7.07093e-07
3.32564e-08
-2.7429e-07
5.10115e-08
-3.58627e-07
6.47749e-08
-3.62462e-07
8.33917e-08
-3.64671e-07
1.09853e-07
-3.7216e-07
1.45974e-07
-3.86005e-07
1.93311e-07
-4.05922e-07
2.53918e-07
-4.29535e-07
3.2841e-07
-4.5243e-07
4.1556e-07
-4.69263e-07
5.12548e-07
-4.73806e-07
6.14091e-07
-4.59e-07
7.11191e-07
-4.18487e-07
7.94345e-07
-3.48552e-07
8.5241e-07
-2.47033e-07
8.77867e-07
-1.18018e-07
8.63769e-07
3.74762e-08
8.11025e-07
1.99757e-07
7.21991e-07
3.66623e-07
6.04257e-07
5.21187e-07
4.69944e-07
6.50392e-07
3.32942e-07
7.50112e-07
1.94833e-07
8.24398e-07
7.22517e-08
8.6563e-07
7.75909e-07
1.72083e-08
-3.00999e-07
1.72189e-08
-3.68279e-07
1.76931e-08
-3.7181e-07
2.5064e-08
-3.8026e-07
4.18078e-08
-3.96628e-07
7.01981e-08
-4.20704e-07
1.11631e-07
-4.52683e-07
1.68797e-07
-4.90816e-07
2.43096e-07
-5.30878e-07
3.36231e-07
-5.65213e-07
4.45146e-07
-5.85605e-07
5.64047e-07
-5.80353e-07
6.80695e-07
-5.3795e-07
7.81006e-07
-4.51373e-07
8.45342e-07
-3.15036e-07
8.65409e-07
-1.42832e-07
8.38117e-07
5.88447e-08
7.65721e-07
2.6686e-07
6.56057e-07
4.71214e-07
5.26154e-07
6.4649e-07
3.8605e-07
7.86001e-07
2.46038e-07
8.82964e-07
1.21549e-07
9.48666e-07
1.67524e-08
9.6045e-07
7.88997e-07
-6.36231e-09
-3.04206e-07
-2.93339e-08
-3.5398e-07
-4.77876e-08
-3.61592e-07
-5.70911e-08
-3.78879e-07
-5.34728e-08
-4.06749e-07
-3.52125e-08
-4.45048e-07
-5.74387e-10
-4.92976e-07
5.13278e-08
-5.47344e-07
1.21067e-07
-6.04725e-07
2.11716e-07
-6.59236e-07
3.24079e-07
-7.01319e-07
4.54678e-07
-7.13284e-07
5.88495e-07
-6.74697e-07
7.0627e-07
-5.70985e-07
7.70776e-07
-3.83647e-07
7.63885e-07
-1.40254e-07
7.11713e-07
1.03081e-07
6.2943e-07
3.43346e-07
5.10918e-07
5.84064e-07
3.73319e-07
7.78775e-07
2.37117e-07
9.17056e-07
1.15962e-07
1.0019e-06
1.02546e-08
1.04441e-06
-5.90388e-08
1.02174e-06
7.25404e-07
-3.73774e-08
-2.75584e-07
-8.71025e-08
-3.13066e-07
-1.28132e-07
-3.27622e-07
-1.58663e-07
-3.54831e-07
-1.76366e-07
-3.94403e-07
-1.79613e-07
-4.4687e-07
-1.64534e-07
-5.11907e-07
-1.28039e-07
-5.87867e-07
-6.6757e-08
-6.70023e-07
2.02927e-08
-7.49878e-07
1.30394e-07
-8.14155e-07
2.58722e-07
-8.44829e-07
3.96182e-07
-8.1321e-07
5.24277e-07
-7.01968e-07
5.89404e-07
-4.50517e-07
5.30593e-07
-8.96505e-08
4.55924e-07
1.69585e-07
3.62489e-07
4.27449e-07
2.49352e-07
6.90365e-07
1.30647e-07
8.90747e-07
2.48995e-08
1.01794e-06
-6.52408e-08
1.08514e-06
-1.33321e-07
1.10782e-06
-1.52587e-07
1.03138e-06
5.6664e-07
-7.55993e-08
-2.08903e-07
-1.5277e-07
-2.43056e-07
-2.18482e-07
-2.68271e-07
-2.72796e-07
-3.05881e-07
-3.14742e-07
-3.56637e-07
-3.43129e-07
-4.22136e-07
-3.55548e-07
-5.02819e-07
-3.48918e-07
-5.97542e-07
-3.19637e-07
-7.02304e-07
-2.62765e-07
-8.09242e-07
-1.75604e-07
-9.04127e-07
-6.05167e-08
-9.61103e-07
6.19065e-08
-9.37978e-07
1.74859e-07
-8.1584e-07
2.11344e-07
-4.91348e-07
7.32736e-08
3.98997e-08
-4.37168e-08
2.71484e-07
-9.08691e-08
4.64112e-07
-1.27168e-07
7.17842e-07
-1.69759e-07
9.27274e-07
-2.14426e-07
1.05743e-06
-2.57099e-07
1.12428e-06
-2.84583e-07
1.13025e-06
-2.41961e-07
9.75877e-07
3.19746e-07
-1.13066e-07
-1.05663e-07
-2.19905e-07
-1.44908e-07
-3.12165e-07
-1.81462e-07
-3.93077e-07
-2.29408e-07
-4.62429e-07
-2.90583e-07
-5.2014e-07
-3.67301e-07
-5.64684e-07
-4.60597e-07
-5.93836e-07
-5.70649e-07
-6.04427e-07
-6.94369e-07
-5.91203e-07
-8.2422e-07
-5.5127e-07
-9.46045e-07
-4.81947e-07
-1.03138e-06
-3.93623e-07
-1.02799e-06
-2.94064e-07
-9.15385e-07
-2.32654e-07
-5.56319e-07
-2.39679e-07
3.99712e-08
-3.26437e-07
3.49232e-07
-3.89242e-07
5.19916e-07
-4.15304e-07
7.38154e-07
-4.24555e-07
9.31578e-07
-4.27684e-07
1.05662e-06
-4.29203e-07
1.12303e-06
-4.11708e-07
1.10371e-06
-2.86472e-07
8.43373e-07
2.08642e-08
-1.37585e-07
1.82389e-08
-2.73953e-07
-1.6049e-08
-3.97579e-07
-6.36318e-08
-5.08615e-07
-1.2226e-07
-6.08213e-07
-1.9363e-07
-6.97956e-07
-2.79668e-07
-7.78356e-07
-3.82099e-07
-8.48146e-07
-5.0258e-07
-9.0479e-07
-6.39634e-07
-9.43472e-07
-7.86909e-07
-9.59739e-07
-9.31163e-07
-9.46059e-07
-1.04584e-06
-8.98941e-07
-1.07592e-06
-8.16188e-07
-9.98079e-07
-6.98036e-07
-6.75915e-07
-5.7412e-07
-8.7147e-08
-6.27483e-07
3.96727e-07
-6.86535e-07
5.7437e-07
-6.76091e-07
7.22862e-07
-6.35101e-07
8.86259e-07
-5.94605e-07
1.01219e-06
-5.56721e-07
1.079e-06
-4.80483e-07
1.02565e-06
-2.60998e-07
6.02524e-07
-2.501e-07
-1.65164e-07
1.7317e-07
-3.26544e-07
1.37382e-07
-4.72335e-07
7.71815e-08
-6.07819e-07
1.01566e-08
-7.36504e-07
-6.72772e-08
-8.59126e-07
-1.58681e-07
-9.76059e-07
-2.66463e-07
-1.08781e-06
-3.92098e-07
-1.19275e-06
-5.35909e-07
-1.28677e-06
-6.93883e-07
-1.36402e-06
-8.54593e-07
-1.41457e-06
-9.95834e-07
-1.41904e-06
-1.07153e-06
-1.37541e-06
-1.04151e-06
-1.24108e-06
-8.10614e-07
-1.03725e-06
-2.92778e-07
-9.45427e-07
3.01512e-07
-9.37517e-07
5.6289e-07
-8.87246e-07
6.68235e-07
-7.95519e-07
7.90684e-07
-7.0776e-07
9.19444e-07
-6.20083e-07
9.89168e-07
-4.80607e-07
8.74993e-07
-1.77313e-07
2.89714e-07
-4.3932e-07
-1.79107e-07
3.46194e-07
-3.54722e-07
3.09056e-07
-5.20911e-07
2.40837e-07
-6.78896e-07
1.66052e-07
-8.30869e-07
8.36323e-08
-9.8153e-07
-9.28059e-09
-1.13183e-06
-1.17032e-07
-1.28225e-06
-2.42442e-07
-1.43215e-06
-3.8694e-07
-1.57767e-06
-5.48459e-07
-1.7136e-06
-7.1917e-07
-1.82681e-06
-8.8227e-07
-1.89421e-06
-1.00424e-06
-1.89831e-06
-1.03685e-06
-1.78342e-06
-9.25903e-07
-1.51521e-06
-5.62046e-07
-1.22882e-06
1.32743e-08
-1.11596e-06
4.46211e-07
-1.03004e-06
5.79378e-07
-8.97242e-07
6.53554e-07
-7.5227e-07
7.71696e-07
-6.1133e-07
8.43522e-07
-3.99851e-07
6.64966e-07
-9.58633e-08
-3.58995e-08
-5.38673e-07
-1.65332e-07
5.04052e-07
-3.3869e-07
4.77083e-07
-5.14785e-07
4.13601e-07
-6.9132e-07
3.39905e-07
-8.66936e-07
2.55875e-07
-1.04085e-06
1.63265e-07
-1.21681e-06
5.70629e-08
-1.39671e-06
-6.2108e-08
-1.58139e-06
-2.03868e-07
-1.76673e-06
-3.61763e-07
-1.94914e-06
-5.38083e-07
-2.11468e-06
-7.14646e-07
-2.24407e-06
-8.76238e-07
-2.30394e-06
-9.75007e-07
-2.25478e-06
-9.76825e-07
-2.00608e-06
-8.10268e-07
-1.57872e-06
-4.17049e-07
-1.23398e-06
9.95633e-08
-1.07547e-06
4.17455e-07
-9.18266e-07
4.93139e-07
-7.14392e-07
5.65679e-07
-4.97884e-07
6.27257e-07
-2.55628e-07
4.06797e-07
1.77246e-08
-3.12537e-07
-5.18873e-07
-1.29842e-07
6.23492e-07
-2.84941e-07
6.22574e-07
-4.5175e-07
5.69922e-07
-6.28864e-07
5.07012e-07
-8.13184e-07
4.34986e-07
-1.00469e-06
3.47369e-07
-1.19695e-06
2.48292e-07
-1.39689e-06
1.3097e-07
-1.59673e-06
3.56013e-11
-1.80669e-06
-1.58709e-07
-2.00805e-06
-3.29711e-07
-2.20754e-06
-5.21847e-07
-2.37188e-06
-7.03893e-07
-2.48303e-06
-8.69686e-07
-2.50074e-06
-9.54873e-07
-2.38576e-06
-9.29659e-07
-2.03544e-06
-7.67907e-07
-1.4912e-06
-4.47522e-07
-1.04408e-06
-3.54864e-08
-7.76845e-07
2.23767e-07
-5.40878e-07
3.22855e-07
-2.54303e-07
3.37069e-07
5.51457e-08
9.3197e-08
1.38013e-07
-3.78543e-07
-3.97133e-07
-8.70399e-08
6.86903e-07
-2.1034e-07
7.27017e-07
-3.48677e-07
6.92392e-07
-4.99981e-07
6.48494e-07
-6.71127e-07
5.88568e-07
-8.50503e-07
5.1888e-07
-1.04448e-06
4.29008e-07
-1.23872e-06
3.24465e-07
-1.44643e-06
1.95494e-07
-1.64481e-06
4.61825e-08
-1.84761e-06
-1.38238e-07
-2.02724e-06
-3.28579e-07
-2.2106e-06
-5.30478e-07
-2.36031e-06
-7.11402e-07
-2.46124e-06
-8.61945e-07
-2.46316e-06
-9.27319e-07
-2.30795e-06
-9.27621e-07
-1.91991e-06
-8.41518e-07
-1.31404e-06
-6.44509e-07
-7.13694e-07
-3.87907e-07
-2.43511e-07
-1.49246e-07
1.11558e-07
-4.34665e-08
3.38471e-07
-1.20818e-07
1.90303e-07
-3.07929e-07
-1.99696e-07
-4.19325e-08
7.16256e-07
-1.25321e-07
7.97201e-07
-2.20669e-07
7.77986e-07
-3.38242e-07
7.45958e-07
-4.67096e-07
7.07936e-07
-6.15097e-07
6.48764e-07
-7.71596e-07
5.72476e-07
-9.37241e-07
4.75439e-07
-1.10176e-06
3.54857e-07
-1.26608e-06
1.99512e-07
-1.406e-06
1.00832e-08
-1.53641e-06
-2.08227e-07
-1.65013e-06
-4.07695e-07
-1.76883e-06
-6.01929e-07
-1.87586e-06
-7.55049e-07
-1.95424e-06
-8.56602e-07
-1.98052e-06
-9.07989e-07
-1.91073e-06
-9.17144e-07
-1.64268e-06
-9.22259e-07
-1.14349e-06
-8.93683e-07
-5.53663e-07
-7.57977e-07
-7.72293e-09
-5.97253e-07
2.73325e-07
-4.94976e-07
2.53398e-07
-2.6483e-07
2.10078e-08
5.99562e-10
6.99216e-07
-3.67298e-08
8.2619e-07
-9.12465e-08
8.21304e-07
-1.57984e-07
8.08771e-07
-2.46543e-07
7.76663e-07
-3.44667e-07
7.28882e-07
-4.48102e-07
6.57957e-07
-5.51872e-07
5.62065e-07
-6.48906e-07
4.37959e-07
-7.33566e-07
2.77686e-07
-8.00669e-07
6.67082e-08
-8.3694e-07
-1.63273e-07
-8.85376e-07
-3.6711e-07
-9.51531e-07
-5.3831e-07
-1.0229e-06
-6.91876e-07
-1.07751e-06
-8.08844e-07
-1.11109e-06
-8.82048e-07
-1.11672e-06
-9.2109e-07
-1.10721e-06
-9.40973e-07
-1.06757e-06
-9.45044e-07
-8.77978e-07
-9.5906e-07
-5.66954e-07
-9.38964e-07
-2.5112e-07
-8.03554e-07
4.92313e-08
-6.14709e-07
8.67233e-08
5.59424e-08
6.4232e-07
7.12773e-08
8.07419e-07
6.86227e-08
8.22033e-07
5.17305e-08
8.11892e-07
2.8908e-08
7.91895e-07
-1.09795e-08
7.50044e-07
-6.07173e-08
6.86808e-07
-1.142e-07
5.95661e-07
-1.62803e-07
4.69693e-07
-1.97078e-07
2.98605e-07
-2.00977e-07
7.50194e-08
-1.99673e-07
-1.8218e-07
-2.51001e-07
-3.18614e-07
-3.61308e-07
-4.3396e-07
-4.59869e-07
-5.98501e-07
-5.22984e-07
-7.51556e-07
-5.47806e-07
-8.6355e-07
-5.48231e-07
-9.28045e-07
-5.49686e-07
-9.48551e-07
-5.80971e-07
-9.24165e-07
-6.6337e-07
-8.88157e-07
-7.74026e-07
-8.33529e-07
-8.2948e-07
-7.62461e-07
-7.60105e-07
-6.67495e-07
-3.6516e-07
-2.99016e-07
9.07199e-08
5.40285e-07
1.48932e-07
7.45244e-07
1.74077e-07
7.91611e-07
1.94844e-07
7.93988e-07
2.03571e-07
7.68542e-07
2.10194e-07
7.32903e-07
2.08567e-07
6.7246e-07
2.01987e-07
5.87019e-07
1.86007e-07
4.72735e-07
1.49643e-07
3.28911e-07
4.52262e-08
1.5986e-07
-4.57861e-08
-8.21642e-08
-3.85389e-08
-3.35815e-07
1.69138e-08
-4.92935e-07
6.36111e-08
-6.48438e-07
9.88842e-08
-7.89686e-07
1.21375e-07
-8.89869e-07
1.47848e-07
-9.60322e-07
1.86512e-07
-9.94958e-07
2.2879e-07
-9.7537e-07
2.64114e-07
-9.30406e-07
2.62375e-07
-8.41839e-07
2.55453e-07
-7.35462e-07
2.54179e-07
-6.57033e-07
-4.99292e-07
4.0553e-07
1.11499e-07
4.30043e-07
2.17512e-07
6.37798e-07
2.74711e-07
7.36528e-07
3.09329e-07
7.49149e-07
3.47075e-07
7.30909e-07
3.82335e-07
6.87087e-07
4.19703e-07
6.23744e-07
4.5901e-07
5.37526e-07
4.99911e-07
4.22878e-07
5.44127e-07
2.76926e-07
6.09147e-07
1.01919e-07
6.30513e-07
-1.17413e-07
6.15944e-07
-3.19463e-07
6.25077e-07
-5.01877e-07
6.36531e-07
-6.5976e-07
6.37446e-07
-7.9066e-07
6.30769e-07
-8.83939e-07
6.1928e-07
-9.50745e-07
6.03704e-07
-9.82619e-07
5.90891e-07
-9.6616e-07
5.84814e-07
-9.26542e-07
6.03863e-07
-8.56574e-07
6.38611e-07
-7.66852e-07
6.65573e-07
-6.68345e-07
-5.57549e-07
7.26752e-07
1.03616e-07
3.1768e-07
2.64029e-07
4.75798e-07
3.50438e-07
6.46225e-07
4.06288e-07
6.97618e-07
4.53549e-07
6.75239e-07
5.07128e-07
6.26684e-07
5.6727e-07
5.56827e-07
6.32727e-07
4.64217e-07
7.03429e-07
3.47168e-07
7.77855e-07
2.03916e-07
8.35416e-07
3.05052e-08
8.80708e-07
-1.52442e-07
9.16292e-07
-3.56664e-07
9.54116e-07
-5.39632e-07
9.83288e-07
-6.88471e-07
9.97932e-07
-8.04693e-07
1.00243e-06
-8.8813e-07
9.9373e-07
-9.42461e-07
9.72512e-07
-9.62584e-07
9.53357e-07
-9.483e-07
9.34009e-07
-9.07076e-07
9.23904e-07
-8.45503e-07
9.38446e-07
-7.71412e-07
9.70386e-07
-6.97819e-07
-6.08681e-07
1.02757e-06
8.06571e-08
2.4169e-07
2.70361e-07
2.87333e-07
3.9854e-07
5.2024e-07
4.67084e-07
6.22572e-07
5.2557e-07
6.17818e-07
5.85283e-07
5.62439e-07
6.52067e-07
4.84609e-07
7.25616e-07
3.86404e-07
8.03274e-07
2.66667e-07
8.76995e-07
1.24064e-07
9.52324e-07
-3.25395e-08
1.0106e-06
-2.1955e-07
1.06733e-06
-4.10538e-07
1.11316e-06
-5.84019e-07
1.15194e-06
-7.26117e-07
1.18523e-06
-8.3696e-07
1.2104e-06
-9.1252e-07
1.2209e-06
-9.52691e-07
1.21952e-06
-9.61463e-07
1.21566e-06
-9.44691e-07
1.21526e-06
-9.06344e-07
1.22452e-06
-8.5155e-07
1.24425e-06
-7.90477e-07
1.27944e-06
-7.25453e-07
-6.55546e-07
1.32665e-06
8.16264e-08
1.63947e-07
2.32902e-07
1.36522e-07
3.91644e-07
3.58919e-07
4.90602e-07
5.29421e-07
5.55692e-07
5.47376e-07
6.18738e-07
4.98826e-07
6.8296e-07
4.17627e-07
7.51125e-07
3.16894e-07
8.19883e-07
1.97039e-07
8.90567e-07
5.87771e-08
9.50428e-07
-1.03388e-07
1.02186e-06
-2.7985e-07
1.08196e-06
-4.70324e-07
1.13712e-06
-6.3783e-07
1.18751e-06
-7.75071e-07
1.22851e-06
-8.76579e-07
1.25966e-06
-9.42532e-07
1.28633e-06
-9.78652e-07
1.31219e-06
-9.87072e-07
1.33737e-06
-9.6975e-07
1.36413e-06
-9.32324e-07
1.39472e-06
-8.81651e-07
1.43478e-06
-8.25387e-07
1.48049e-06
-7.72399e-07
-7.10765e-07
1.53914e-06
7.60506e-08
9.82115e-08
1.56173e-07
6.34434e-08
3.34967e-07
1.86083e-07
4.56915e-07
4.02707e-07
5.42428e-07
4.66696e-07
6.08421e-07
4.32337e-07
6.6872e-07
3.58191e-07
7.24857e-07
2.62173e-07
7.77052e-07
1.46934e-07
8.20466e-07
1.29223e-08
8.74732e-07
-1.4222e-07
9.25736e-07
-3.36704e-07
9.80587e-07
-5.21369e-07
1.03599e-06
-6.91016e-07
1.09289e-06
-8.30157e-07
1.15056e-06
-9.32629e-07
1.20687e-06
-9.9745e-07
1.25569e-06
-1.02649e-06
1.29843e-06
-1.02921e-06
1.34314e-06
-1.01398e-06
1.39169e-06
-9.80222e-07
1.44481e-06
-9.32685e-07
1.50121e-06
-8.83194e-07
1.5657e-06
-8.31777e-07
-7.81154e-07
1.63488e-06
4.69131e-08
6.31795e-08
1.04399e-07
1.83606e-08
2.40423e-07
4.97239e-08
3.81465e-07
2.68678e-07
4.77209e-07
3.70703e-07
5.50323e-07
3.62524e-07
6.08593e-07
3.04756e-07
6.52621e-07
2.23142e-07
6.83473e-07
1.22049e-07
7.05448e-07
2.40661e-09
7.18535e-07
-1.61717e-07
7.43187e-07
-3.49948e-07
7.71052e-07
-5.47441e-07
8.15404e-07
-7.33112e-07
8.75138e-07
-8.87801e-07
9.44085e-07
-9.99642e-07
1.01724e-06
-1.06897e-06
1.09342e-06
-1.1014e-06
1.16922e-06
-1.10418e-06
1.23977e-06
-1.08385e-06
1.30818e-06
-1.04785e-06
1.37946e-06
-1.00398e-06
1.45775e-06
-9.57316e-07
1.53804e-06
-9.15361e-07
-8.71747e-07
1.63138e-06
3.87445e-08
4.47294e-08
9.43847e-08
-2.58867e-08
1.62645e-07
-5.17197e-09
2.78307e-07
1.53297e-07
3.72046e-07
2.84155e-07
4.41526e-07
2.99958e-07
4.93099e-07
2.61839e-07
5.25106e-07
2.01531e-07
5.3585e-07
1.22143e-07
5.18833e-07
2.50562e-08
4.90427e-07
-1.15748e-07
4.55801e-07
-3.16542e-07
4.5228e-07
-5.38498e-07
4.98988e-07
-7.7579e-07
5.82644e-07
-9.68273e-07
6.81591e-07
-1.09601e-06
7.82208e-07
-1.16746e-06
8.79443e-07
-1.19704e-06
9.73453e-07
-1.19703e-06
1.06644e-06
-1.17596e-06
1.16024e-06
-1.14082e-06
1.25812e-06
-1.09986e-06
1.35948e-06
-1.06142e-06
1.47329e-06
-1.02398e-06
-1.00206e-06
1.60157e-06
5.11136e-08
6.29676e-09
1.25655e-07
-8.41001e-08
1.46971e-07
-1.86167e-08
2.0256e-07
1.09288e-07
2.60699e-07
2.32394e-07
3.0679e-07
2.66721e-07
3.34073e-07
2.49759e-07
3.41157e-07
2.11052e-07
3.24047e-07
1.56792e-07
2.79469e-07
9.05827e-08
1.6521e-07
3.04319e-09
8.59532e-08
-2.19627e-07
1.13337e-07
-5.58088e-07
2.27643e-07
-8.84317e-07
3.70755e-07
-1.10717e-06
5.11765e-07
-1.23374e-06
6.40714e-07
-1.29386e-06
7.58079e-07
-1.31243e-06
8.67804e-07
-1.30529e-06
9.75447e-07
-1.28241e-06
1.08724e-06
-1.25153e-06
1.20652e-06
-1.21936e-06
1.3393e-06
-1.18944e-06
1.48393e-06
-1.17272e-06
-1.17148e-06
1.65623e-06
7.638e-08
-5.27758e-08
1.6391e-07
-1.62535e-07
1.72795e-07
-1.19688e-08
1.75234e-07
1.13483e-07
1.90841e-07
2.31463e-07
1.92596e-07
2.81198e-07
1.78417e-07
2.85635e-07
1.44687e-07
2.69489e-07
8.69205e-08
2.41446e-07
-1.90206e-09
2.03326e-07
-1.16633e-07
1.62527e-07
-1.37983e-07
-1.82467e-07
-1.1851e-08
-6.73243e-07
1.6107e-07
-1.05069e-06
3.35221e-07
-1.27685e-06
4.95648e-07
-1.39079e-06
6.40637e-07
-1.43618e-06
7.73654e-07
-1.44336e-06
9.00093e-07
-1.43011e-06
1.02599e-06
-1.40704e-06
1.1569e-06
-1.38125e-06
1.29814e-06
-1.35823e-06
1.45033e-06
-1.3445e-06
1.6244e-06
-1.34139e-06
-1.36265e-06
1.81395e-06
1.07029e-07
-1.52986e-07
1.86096e-07
-2.32373e-07
1.8883e-07
-6.12014e-09
1.80534e-07
1.35172e-07
1.63837e-07
2.61607e-07
1.2732e-07
3.38223e-07
7.38279e-08
3.63949e-07
-5.20683e-09
3.76917e-07
-1.19328e-07
3.83242e-07
-2.1147e-07
3.23295e-07
-1.90758e-07
1.60362e-07
-1.04074e-07
-2.503e-07
2.2149e-08
-7.89758e-07
1.85259e-07
-1.20785e-06
3.60767e-07
-1.44832e-06
5.32821e-07
-1.55976e-06
6.96001e-07
-1.59689e-06
8.50337e-07
-1.59573e-06
9.98806e-07
-1.57702e-06
1.1459e-06
-1.55278e-06
1.29625e-06
-1.53041e-06
1.45294e-06
-1.515e-06
1.62194e-06
-1.50885e-06
1.7966e-06
-1.51917e-06
-1.53918e-06
1.97608e-06
1.27976e-07
-2.72285e-07
1.65266e-07
-2.62506e-07
1.57391e-07
1.72968e-08
1.74179e-07
1.32675e-07
1.5021e-07
3.01251e-07
8.8477e-08
4.19432e-07
-3.42721e-08
5.0676e-07
-2.1108e-07
5.70588e-07
-3.52747e-07
5.3817e-07
-3.81803e-07
3.64922e-07
-2.68506e-07
6.59364e-08
-1.18175e-07
-3.86589e-07
2.60076e-08
-9.26869e-07
1.9671e-07
-1.37374e-06
3.82619e-07
-1.63084e-06
5.70177e-07
-1.74468e-06
7.51924e-07
-1.77648e-06
9.25672e-07
-1.7677e-06
1.09262e-06
-1.74249e-06
1.2556e-06
-1.71455e-06
1.41762e-06
-1.69132e-06
1.58133e-06
-1.67644e-06
1.74296e-06
-1.67246e-06
1.90327e-06
-1.67457e-06
-1.68599e-06
2.04946e-06
1.13642e-07
-3.77358e-07
1.45158e-07
-2.79829e-07
1.86775e-07
-5.75607e-09
1.83493e-07
1.45908e-07
9.58251e-08
4.05028e-07
-7.60134e-08
6.02461e-07
-2.83887e-07
7.2519e-07
-4.51847e-07
7.47831e-07
-5.14877e-07
6.10388e-07
-4.46132e-07
3.08032e-07
-2.82733e-07
-8.30236e-08
-1.14481e-07
-5.48749e-07
5.50316e-08
-1.0897e-06
2.34854e-07
-1.54962e-06
4.28086e-07
-1.82136e-06
6.2289e-07
-1.93735e-06
8.11634e-07
-1.96342e-06
9.91668e-07
-1.94618e-06
1.16322e-06
-1.91271e-06
1.32768e-06
-1.87778e-06
1.48604e-06
-1.84849e-06
1.63711e-06
-1.82729e-06
1.78143e-06
-1.81267e-06
1.91169e-06
-1.80675e-06
-1.80318e-06
2.03175e-06
7.33821e-08
-4.41491e-07
1.1465e-07
-3.06007e-07
1.30568e-07
-8.80465e-09
-4.47529e-08
3.32563e-07
-2.48109e-07
6.11691e-07
-4.43016e-07
8.04202e-07
-5.98327e-07
8.87126e-07
-6.48684e-07
8.04583e-07
-5.84199e-07
5.53054e-07
-4.04756e-07
1.3748e-07
-2.0813e-07
-2.75259e-07
-3.10582e-08
-7.17003e-07
1.39182e-07
-1.25694e-06
3.16176e-07
-1.72426e-06
5.06232e-07
-2.00955e-06
6.96523e-07
-2.12604e-06
8.79133e-07
-2.14459e-06
1.05126e-06
-2.11699e-06
1.21258e-06
-2.07283e-06
1.36352e-06
-2.02765e-06
1.50439e-06
-1.98829e-06
1.63592e-06
-1.95682e-06
1.75638e-06
-1.93439e-06
1.8717e-06
-1.91773e-06
-1.91169e-06
1.98008e-06
2.89801e-08
-4.58945e-07
-1.35201e-08
-2.51757e-07
-1.93496e-07
1.78045e-07
-3.81139e-07
5.19738e-07
-5.36113e-07
7.71724e-07
-6.42401e-07
9.13679e-07
-6.77119e-07
9.24962e-07
-6.15431e-07
7.4713e-07
-4.46778e-07
3.88335e-07
-2.10313e-07
-9.60649e-08
-2.54005e-08
-4.53462e-07
1.29696e-07
-8.73036e-07
2.7618e-07
-1.40131e-06
4.35831e-07
-1.88249e-06
6.11173e-07
-2.18365e-06
7.86007e-07
-2.2997e-06
9.51754e-07
-2.30919e-06
1.10561e-06
-2.26974e-06
1.24736e-06
-2.21354e-06
1.37814e-06
-2.15739e-06
1.49976e-06
-2.1089e-06
1.61407e-06
-2.07081e-06
1.726e-06
-2.04278e-06
1.83445e-06
-2.02753e-06
-2.01998e-06
1.9454e-06
-9.54516e-09
-4.41844e-07
-1.97397e-07
-6.00405e-08
-3.81563e-07
3.61374e-07
-5.18618e-07
6.59859e-07
-6.03376e-07
8.55382e-07
-6.32844e-07
9.4338e-07
-5.7778e-07
8.71273e-07
-4.29784e-07
5.99174e-07
-1.35019e-07
9.33683e-08
8.82274e-08
-3.19347e-07
2.24211e-07
-5.94353e-07
3.43437e-07
-9.90265e-07
4.56897e-07
-1.51487e-06
5.89121e-07
-2.01428e-06
7.39226e-07
-2.33312e-06
8.88666e-07
-2.44838e-06
1.02952e-06
-2.44922e-06
1.15963e-06
-2.39897e-06
1.27961e-06
-2.33263e-06
1.39186e-06
-2.26877e-06
1.4995e-06
-2.21563e-06
1.60609e-06
-2.17564e-06
1.71197e-06
-2.14954e-06
1.82164e-06
-2.13342e-06
-2.1294e-06
1.93127e-06
-2.85185e-08
-4.21545e-07
-2.42329e-07
1.51186e-07
-3.78203e-07
4.96553e-07
-4.62416e-07
7.40417e-07
-4.88832e-07
8.79902e-07
-4.55457e-07
9.07864e-07
-3.32789e-07
7.45573e-07
-8.67426e-08
3.4848e-07
1.78612e-07
-1.79559e-07
3.2062e-07
-4.67606e-07
4.52395e-07
-7.26573e-07
5.69245e-07
-1.10997e-06
6.6557e-07
-1.6117e-06
7.67623e-07
-2.11635e-06
8.856e-07
-2.45079e-06
1.00281e-06
-2.5651e-06
1.11458e-06
-2.56038e-06
1.21982e-06
-2.50351e-06
1.3197e-06
-2.43176e-06
1.41697e-06
-2.36522e-06
1.51439e-06
-2.31215e-06
1.61325e-06
-2.27413e-06
1.7158e-06
-2.24905e-06
1.81866e-06
-2.23701e-06
-2.23265e-06
1.9243e-06
-4.30476e-08
-3.78395e-07
-1.80094e-07
2.84295e-07
-2.59053e-07
5.71141e-07
-2.90166e-07
7.67396e-07
-2.72932e-07
8.57588e-07
-1.94522e-07
8.22918e-07
-4.47637e-08
5.8689e-07
1.94283e-07
9.71895e-08
3.63811e-07
-3.57056e-07
5.15889e-07
-6.2393e-07
6.75442e-07
-8.90657e-07
8.02182e-07
-1.23812e-06
8.84776e-07
-1.69512e-06
9.58688e-07
-2.19047e-06
1.04236e-06
-2.53435e-06
1.12517e-06
-2.6476e-06
1.20733e-06
-2.64209e-06
1.28855e-06
-2.58417e-06
1.36978e-06
-2.51235e-06
1.45289e-06
-2.44763e-06
1.53927e-06
-2.39771e-06
1.6296e-06
-2.36293e-06
1.72196e-06
-2.34179e-06
1.8181e-06
-2.33001e-06
-2.32851e-06
1.9145e-06
-4.14354e-08
-3.68126e-07
-7.66931e-08
3.13075e-07
-9.53994e-08
5.84706e-07
-7.8001e-08
7.44147e-07
-2.42204e-08
7.93404e-07
8.12693e-08
7.07208e-07
2.45467e-07
4.11144e-07
4.27856e-07
-9.72974e-08
5.60316e-07
-4.95857e-07
7.1729e-07
-7.85578e-07
8.90109e-07
-1.06599e-06
1.02066e-06
-1.37004e-06
1.09446e-06
-1.76993e-06
1.14635e-06
-2.24269e-06
1.19913e-06
-2.58709e-06
1.25007e-06
-2.6983e-06
1.30409e-06
-2.69573e-06
1.36219e-06
-2.64178e-06
1.42477e-06
-2.57434e-06
1.49275e-06
-2.51491e-06
1.56632e-06
-2.47046e-06
1.64445e-06
-2.44056e-06
1.72729e-06
-2.42216e-06
1.81184e-06
-2.41471e-06
-2.41445e-06
1.89983e-06
-3.60277e-08
-3.26642e-07
3.04318e-08
2.44172e-07
6.95361e-08
5.40179e-07
1.30045e-07
6.72909e-07
2.23127e-07
6.95876e-07
3.45259e-07
5.743e-07
5.02497e-07
2.42539e-07
6.35853e-07
-2.38899e-07
7.63205e-07
-6.27993e-07
9.21446e-07
-9.46846e-07
1.09055e-06
-1.23645e-06
1.21418e-06
-1.49599e-06
1.2801e-06
-1.8363e-06
1.31658e-06
-2.27933e-06
1.34563e-06
-2.61605e-06
1.36883e-06
-2.72127e-06
1.39739e-06
-2.72395e-06
1.43308e-06
-2.67702e-06
1.4766e-06
-2.61734e-06
1.52847e-06
-2.56617e-06
1.58803e-06
-2.52929e-06
1.65423e-06
-2.50545e-06
1.72481e-06
-2.49272e-06
1.80066e-06
-2.48805e-06
-2.49234e-06
1.87931e-06
-3.21062e-08
-3.03478e-07
1.22646e-07
8.53568e-08
2.16941e-07
4.40343e-07
3.13994e-07
5.76825e-07
4.24851e-07
5.6977e-07
5.64107e-07
4.28431e-07
7.16105e-07
8.21766e-08
8.41604e-07
-3.69237e-07
9.64716e-07
-7.54118e-07
1.1181e-06
-1.10178e-06
1.26945e-06
-1.39064e-06
1.37547e-06
-1.60157e-06
1.43097e-06
-1.89269e-06
1.45817e-06
-2.30672e-06
1.46966e-06
-2.62742e-06
1.47183e-06
-2.72317e-06
1.47798e-06
-2.72974e-06
1.49242e-06
-2.69102e-06
1.5176e-06
-2.64199e-06
1.55416e-06
-2.60211e-06
1.6008e-06
-2.57516e-06
1.65533e-06
-2.55941e-06
1.71696e-06
-2.55237e-06
1.78313e-06
-2.55395e-06
-2.56206e-06
1.85458e-06
-1.98051e-08
-2.7332e-07
1.87683e-07
-1.18842e-07
3.41459e-07
2.87838e-07
4.47566e-07
4.55374e-07
5.7279e-07
4.47324e-07
7.09414e-07
2.8326e-07
8.57656e-07
-7.15735e-08
9.91164e-07
-5.04703e-07
1.12839e-06
-8.92288e-07
1.28026e-06
-1.25475e-06
1.40756e-06
-1.5164e-06
1.48676e-06
-1.68292e-06
1.53675e-06
-1.94239e-06
1.56266e-06
-2.33241e-06
1.56116e-06
-2.6256e-06
1.54896e-06
-2.71059e-06
1.53624e-06
-2.71659e-06
1.53255e-06
-2.68683e-06
1.54283e-06
-2.65174e-06
1.56736e-06
-2.62603e-06
1.60379e-06
-2.61087e-06
1.64972e-06
-2.6042e-06
1.70253e-06
-2.60486e-06
1.76203e-06
-2.61145e-06
-2.62511e-06
1.82593e-06
5.02005e-08
-3.10418e-07
1.9913e-07
-2.63307e-07
4.0349e-07
7.77827e-08
5.38358e-07
3.2805e-07
6.50511e-07
3.2263e-07
7.76492e-07
1.56056e-07
9.23233e-07
-2.17179e-07
1.06664e-06
-6.47084e-07
1.22247e-06
-1.04667e-06
1.36906e-06
-1.39942e-06
1.46573e-06
-1.6147e-06
1.53143e-06
-1.74629e-06
1.59113e-06
-2.00205e-06
1.625e-06
-2.36588e-06
1.61533e-06
-2.61545e-06
1.59072e-06
-2.68547e-06
1.56464e-06
-2.68999e-06
1.54947e-06
-2.67111e-06
1.55108e-06
-2.65277e-06
1.56838e-06
-2.64268e-06
1.5981e-06
-2.63984e-06
1.63713e-06
-2.64256e-06
1.68388e-06
-2.65002e-06
1.73604e-06
-2.66309e-06
-2.68116e-06
1.79356e-06
5.74083e-08
-3.52369e-07
1.35173e-07
-3.30585e-07
3.56378e-07
-1.35384e-07
5.1477e-07
1.59537e-07
6.33253e-07
2.12116e-07
7.30607e-07
6.07544e-08
8.68696e-07
-3.5144e-07
1.03057e-06
-8.05078e-07
1.20693e-06
-1.21979e-06
1.34395e-06
-1.53502e-06
1.4301e-06
-1.69672e-06
1.50999e-06
-1.82664e-06
1.59731e-06
-2.08797e-06
1.6414e-06
-2.40904e-06
1.62775e-06
-2.60103e-06
1.59529e-06
-2.6523e-06
1.56316e-06
-2.65719e-06
1.54488e-06
-2.65219e-06
1.5443e-06
-2.65154e-06
1.55867e-06
-2.65639e-06
1.58432e-06
-2.66473e-06
1.61856e-06
-2.67576e-06
1.65921e-06
-2.69013e-06
1.70584e-06
-2.70812e-06
-2.73113e-06
1.75676e-06
7.36248e-09
-3.42214e-07
-1.88367e-08
-2.91953e-07
1.04997e-07
-2.55929e-07
3.06367e-07
-2.35602e-08
4.34209e-07
8.54999e-08
5.03118e-07
5.5815e-09
6.57849e-07
-4.97531e-07
8.69723e-07
-1.00995e-06
1.07828e-06
-1.42308e-06
1.22624e-06
-1.67783e-06
1.33779e-06
-1.80729e-06
1.46794e-06
-1.95289e-06
1.58505e-06
-2.2036e-06
1.62883e-06
-2.4516e-06
1.60713e-06
-2.57833e-06
1.56959e-06
-2.6139e-06
1.5383e-06
-2.62511e-06
1.52376e-06
-2.6369e-06
1.52558e-06
-2.65265e-06
1.53978e-06
-2.66986e-06
1.56305e-06
-2.68719e-06
1.59325e-06
-2.70521e-06
1.62949e-06
-2.72504e-06
1.67041e-06
-2.74822e-06
-2.77523e-06
1.71577e-06
-4.48216e-08
-2.7883e-07
-1.41387e-07
-1.75579e-07
-1.97727e-07
-1.71529e-07
-1.33234e-07
-7.99793e-08
-1.71349e-08
-4.71807e-09
1.10511e-07
-9.68533e-08
3.93455e-07
-7.67392e-07
6.9735e-07
-1.3048e-06
9.39544e-07
-1.65834e-06
1.11433e-06
-1.84824e-06
1.2773e-06
-1.96445e-06
1.4452e-06
-2.11904e-06
1.5611e-06
-2.31717e-06
1.58419e-06
-2.47306e-06
1.5539e-06
-2.5468e-06
1.51832e-06
-2.57727e-06
1.49654e-06
-2.6024e-06
1.49094e-06
-2.63046e-06
1.49766e-06
-2.65858e-06
1.51295e-06
-2.68436e-06
1.53473e-06
-2.70814e-06
1.56205e-06
-2.73153e-06
1.59415e-06
-2.75629e-06
1.63072e-06
-2.78353e-06
-2.81427e-06
1.67088e-06
-5.99154e-08
-1.96921e-07
-1.70901e-07
-4.1025e-08
-3.35389e-07
6.30954e-09
-3.83216e-07
-8.03899e-09
-2.74896e-07
-8.52318e-08
3.00738e-08
-3.75964e-07
3.66384e-07
-1.09059e-06
6.65181e-07
-1.59458e-06
8.9576e-07
-1.88186e-06
1.08709e-06
-2.03327e-06
1.2686e-06
-2.14309e-06
1.42109e-06
-2.26743e-06
1.49595e-06
-2.38968e-06
1.49649e-06
-2.4718e-06
1.47083e-06
-2.51971e-06
1.45171e-06
-2.55696e-06
1.44626e-06
-2.59592e-06
1.45133e-06
-2.6346e-06
1.46304e-06
-2.66943e-06
1.47954e-06
-2.70002e-06
1.50038e-06