/*--------------------------------*- C++ -*----------------------------------*\
  =========                 |
  \\      /  F ield         | OpenFOAM: The Open Source CFD Toolbox
   \\    /   O peration     | Website:  https://openfoam.org
    \\  /    A nd           | Version:  13
     \\/     M anipulation  |
\*---------------------------------------------------------------------------*/
FoamFile
{
    format      ascii;
    class       volVectorField;
    location    "8";
    object      U;
}
// * * * * * * * * * * * * * * * * * * * * * * * * * * * * * * * * * * * * * //

dimensions      [0 1 -1 0 0 0 0];

internalField   nonuniform List<vector> 
6440
(
(1.11761e-07 -2.97856e-07 0)
(2.75231e-07 -9.45595e-07 0)
(7.19944e-07 -1.17879e-06 -1.77844e-21)
(9.96579e-07 -1.28211e-06 1.77232e-21)
(1.05518e-06 -1.38537e-06 0)
(8.44817e-07 -1.46667e-06 -3.54982e-21)
(3.20065e-07 -1.48988e-06 3.52581e-21)
(-5.22892e-07 -1.42861e-06 0)
(-1.69895e-06 -1.24861e-06 7.27471e-21)
(-3.20306e-06 -9.14209e-07 -7.20276e-21)
(-4.98443e-06 -4.06805e-07 -7.59267e-21)
(-6.95282e-06 2.81243e-07 -3.17219e-22)
(-8.9874e-06 1.13473e-06 -3.68041e-22)
(-1.09661e-05 2.12628e-06 7.97876e-21)
(-1.27836e-05 3.23037e-06 8.713e-21)
(-1.43234e-05 4.41207e-06 -8.5804e-21)
(-1.54471e-05 5.61082e-06 0)
(-1.6079e-05 6.75367e-06 1.93546e-20)
(-1.62177e-05 7.78261e-06 8.91843e-22)
(-1.59172e-05 8.61734e-06 -1.95523e-20)
(-1.51862e-05 9.03984e-06 2.08175e-20)
(-1.38352e-05 8.55609e-06 -4.15799e-20)
(-1.36175e-05 7.52947e-06 2.07449e-20)
(-1.06389e-05 2.8429e-06 -2.15859e-20)
(-3.04088e-06 -2.87823e-06 -1.92777e-22)
(3.68642e-07 -1.0663e-06 0)
(9.96121e-07 -2.62576e-06 0)
(1.93834e-06 -2.92396e-06 -1.89694e-21)
(2.72801e-06 -2.97344e-06 1.89038e-21)
(3.49439e-06 -3.04758e-06 0)
(4.1808e-06 -3.08388e-06 -3.71033e-21)
(4.73031e-06 -3.03392e-06 3.68507e-21)
(5.10315e-06 -2.86888e-06 0)
(5.27296e-06 -2.58008e-06 0)
(5.20063e-06 -2.15185e-06 0)
(4.85924e-06 -1.56075e-06 0)
(4.23956e-06 -8.01035e-07 -7.63358e-21)
(3.35833e-06 1.08841e-07 7.53597e-21)
(2.27641e-06 1.13107e-06 0)
(1.08174e-06 2.21509e-06 8.43564e-21)
(-1.18136e-07 3.31336e-06 -8.30656e-21)
(-1.252e-06 4.38978e-06 0)
(-2.25856e-06 5.38919e-06 0)
(-3.05279e-06 6.26119e-06 2.02943e-20)
(-3.63625e-06 6.98743e-06 -1.99272e-20)
(-4.00539e-06 7.46207e-06 2.21761e-20)
(-3.71916e-06 7.03499e-06 -2.17496e-20)
(-5.58154e-06 6.7931e-06 -2.38296e-20)
(-7.40473e-06 3.78812e-06 -1.07677e-21)
(-1.40551e-07 -5.79089e-06 1.74094e-20)
(6.31279e-07 -2.84203e-06 0)
(1.72897e-06 -5.21318e-06 0)
(3.08642e-06 -5.32186e-06 -1.91314e-21)
(4.17536e-06 -5.33871e-06 1.90684e-21)
(5.30201e-06 -5.50768e-06 0)
(6.36365e-06 -5.6222e-06 -3.66127e-21)
(7.31284e-06 -5.59674e-06 7.23611e-21)
(8.06484e-06 -5.36905e-06 -3.57156e-21)
(8.53083e-06 -4.90127e-06 6.99285e-21)
(8.67443e-06 -4.17111e-06 -6.92646e-21)
(8.44669e-06 -3.1634e-06 -6.9391e-21)
(7.77283e-06 -1.86853e-06 -1.40956e-22)
(6.64057e-06 -2.96263e-07 6.91563e-21)
(5.09051e-06 1.54364e-06 7.35776e-21)
(3.2125e-06 3.5879e-06 4.09414e-22)
(1.13199e-06 5.75856e-06 -7.55255e-21)
(-1.04974e-06 7.97549e-06 0)
(-3.18827e-06 1.0155e-05 1.81731e-20)
(-5.09341e-06 1.22041e-05 -1.78685e-20)
(-6.62579e-06 1.40639e-05 0)
(-7.62082e-06 1.56536e-05 2.20246e-20)
(-7.18259e-06 1.63098e-05 -4.49535e-20)
(-7.33098e-06 1.71954e-05 2.28928e-20)
(-8.18117e-06 1.63978e-05 -2.5396e-20)
(1.45611e-06 1.89756e-06 1.8291e-20)
(8.412e-07 -5.4238e-06 0)
(2.30379e-06 -8.40711e-06 0)
(3.89283e-06 -8.1437e-06 -1.94191e-21)
(5.12496e-06 -8.16969e-06 1.93582e-21)
(6.39914e-06 -8.54573e-06 0)
(7.57849e-06 -8.87619e-06 -3.64761e-21)
(8.62711e-06 -9.03582e-06 7.17756e-21)
(9.45976e-06 -8.96471e-06 -3.52705e-21)
(9.98494e-06 -8.6153e-06 0)
(1.01088e-05 -7.941e-06 0)
(9.71944e-06 -6.90604e-06 0)
(8.73964e-06 -5.47105e-06 -6.53821e-21)
(7.19853e-06 -3.63783e-06 6.46175e-21)
(5.127e-06 -1.42938e-06 6.79482e-21)
(2.57973e-06 1.12809e-06 -6.70449e-21)
(-3.05755e-07 3.99736e-06 0)
(-3.37778e-06 7.10008e-06 1.5976e-20)
(-6.4027e-06 1.03253e-05 -1.57294e-20)
(-9.10445e-06 1.35305e-05 0)
(-1.12441e-05 1.66006e-05 0)
(-1.25566e-05 1.94075e-05 0)
(-1.19187e-05 2.12422e-05 0)
(-1.05198e-05 2.30253e-05 0)
(-1.06092e-05 2.40557e-05 -2.58613e-20)
(1.67976e-06 6.5163e-06 -5.16998e-22)
(9.60138e-07 -8.5086e-06 0)
(2.67063e-06 -1.18283e-05 0)
(4.31382e-06 -1.10533e-05 -1.99158e-21)
(5.57013e-06 -1.10633e-05 1.98563e-21)
(6.84911e-06 -1.15961e-05 0)
(7.99892e-06 -1.20744e-05 -3.68233e-21)
(8.99817e-06 -1.23429e-05 7.21876e-21)
(9.77382e-06 -1.23483e-05 -3.53384e-21)
(1.02378e-05 -1.20584e-05 0)
(1.02966e-05 -1.14434e-05 0)
(9.85394e-06 -1.04585e-05 0)
(8.80967e-06 -9.03652e-06 -6.215e-21)
(7.07063e-06 -7.10354e-06 6.14555e-21)
(4.64036e-06 -4.6567e-06 6.36801e-21)
(1.69391e-06 -1.77374e-06 -6.28706e-21)
(-1.61209e-06 1.48448e-06 0)
(-5.1525e-06 5.11477e-06 1.50466e-20)
(-8.67835e-06 9.00699e-06 -1.48241e-20)
(-1.18792e-05 1.2991e-05 0)
(-1.44539e-05 1.69078e-05 0)
(-1.60979e-05 2.0557e-05 0)
(-1.55971e-05 2.31724e-05 0)
(-1.35413e-05 2.5447e-05 0)
(-1.34706e-05 2.77686e-05 -2.60243e-20)
(1.29002e-06 8.88811e-06 1.9136e-20)
(1.0054e-06 -1.18015e-05 0)
(2.87448e-06 -1.51383e-05 0)
(4.44765e-06 -1.37766e-05 -2.06541e-21)
(5.66673e-06 -1.3738e-05 2.05954e-21)
(6.88302e-06 -1.43651e-05 0)
(7.92254e-06 -1.48993e-05 -3.76872e-21)
(8.80176e-06 -1.51755e-05 7.36442e-21)
(9.46643e-06 -1.51569e-05 -3.59331e-21)
(9.84255e-06 -1.48339e-05 6.62439e-21)
(9.85225e-06 -1.41956e-05 -6.56975e-21)
(9.40762e-06 -1.32152e-05 0)
(8.41927e-06 -1.18421e-05 -6.00192e-21)
(6.79008e-06 -9.99334e-06 -2.04005e-23)
(4.41098e-06 -7.54683e-06 1.19223e-20)
(1.33283e-06 -4.48658e-06 -5.95878e-21)
(-2.17262e-06 -9.8768e-07 0)
(-5.91653e-06 2.90085e-06 1.41798e-20)
(-9.72172e-06 7.16186e-06 1.47188e-21)
(-1.3246e-05 1.15819e-05 1.74736e-21)
(-1.62212e-05 1.59811e-05 -1.67095e-20)
(-1.83717e-05 2.02495e-05 0)
(-1.83458e-05 2.35059e-05 0)
(-1.61814e-05 2.60791e-05 0)
(-1.62174e-05 2.9335e-05 -2.59857e-20)
(7.25118e-07 9.92521e-06 1.93037e-20)
(1.00845e-06 -1.51193e-05 0)
(2.98898e-06 -1.81667e-05 0)
(4.43852e-06 -1.62072e-05 -2.1641e-21)
(5.56184e-06 -1.60997e-05 2.15825e-21)
(6.67136e-06 -1.67705e-05 4.07192e-21)
(7.59689e-06 -1.73141e-05 -7.9617e-21)
(8.33991e-06 -1.7537e-05 7.61665e-21)
(8.87945e-06 -1.74383e-05 -3.70636e-21)
(9.17142e-06 -1.70396e-05 0)
(9.15763e-06 -1.63551e-05 6.38928e-21)
(8.76917e-06 -1.53825e-05 -6.33394e-21)
(7.92412e-06 -1.40867e-05 -5.88929e-21)
(6.53771e-06 -1.23988e-05 5.82932e-21)
(4.49139e-06 -1.01931e-05 5.77492e-21)
(1.65139e-06 -7.28688e-06 -5.70791e-21)
(-1.84654e-06 -3.73074e-06 0)
(-5.65233e-06 2.35711e-07 1.33484e-20)
(-9.61504e-06 4.64168e-06 -1.31675e-20)
(-1.3558e-05 9.41722e-06 0)
(-1.69818e-05 1.41978e-05 1.78874e-20)
(-1.95831e-05 1.88445e-05 -1.76146e-20)
(-2.02302e-05 2.26983e-05 0)
(-1.83511e-05 2.56129e-05 0)
(-1.86732e-05 2.96253e-05 -2.58242e-20)
(1.93541e-07 1.00497e-05 -7.24099e-22)
(9.87641e-07 -1.83615e-05 0)
(3.04459e-06 -2.08655e-05 0)
(4.35784e-06 -1.83465e-05 -2.28721e-21)
(5.38167e-06 -1.81694e-05 2.28132e-21)
(6.36965e-06 -1.88266e-05 0)
(7.20075e-06 -1.93558e-05 -4.10031e-21)
(7.84637e-06 -1.95333e-05 4.07939e-21)
(8.27117e-06 -1.93347e-05 0)
(8.48437e-06 -1.88426e-05 0)
(8.46394e-06 -1.81107e-05 0)
(8.16202e-06 -1.7163e-05 0)
(7.51521e-06 -1.59896e-05 -5.87709e-21)
(6.43796e-06 -1.45312e-05 5.81999e-21)
(4.83452e-06 -1.26828e-05 0)
(2.51104e-06 -1.02312e-05 0)
(-6.95703e-07 -6.94402e-06 0)
(-4.48071e-06 -2.98832e-06 0)
(-8.49952e-06 1.42143e-06 0)
(-1.26945e-05 6.3851e-06 1.5209e-20)
(-1.67122e-05 1.1694e-05 -1.49947e-20)
(-1.99903e-05 1.68287e-05 0)
(-2.13611e-05 2.11959e-05 0)
(-1.9925e-05 2.45087e-05 0)
(-2.07231e-05 2.92605e-05 -2.55828e-20)
(-2.10798e-07 9.71595e-06 1.93867e-20)
(9.54923e-07 -2.1467e-05 0)
(3.06806e-06 -2.32479e-05 0)
(4.27074e-06 -2.02368e-05 -2.43317e-21)
(5.23599e-06 -2.00052e-05 2.42721e-21)
(6.1165e-06 -2.06284e-05 0)
(6.84027e-06 -2.1108e-05 -4.34377e-21)
(7.4477e-06 -2.12496e-05 8.43846e-21)
(7.84584e-06 -2.10036e-05 -4.09261e-21)
(8.00758e-06 -2.04272e-05 0)
(7.99e-06 -1.96464e-05 0)
(7.785e-06 -1.87264e-05 6.34434e-21)
(7.34831e-06 -1.76881e-05 -1.22585e-20)
(6.60879e-06 -1.6498e-05 5.91332e-21)
(5.45883e-06 -1.50509e-05 5.50747e-21)
(3.74026e-06 -1.31666e-05 -5.44914e-21)
(1.18158e-06 -1.05042e-05 0)
(-2.30104e-06 -6.85095e-06 -1.18467e-20)
(-6.33446e-06 -2.50084e-06 1.16996e-20)
(-1.06706e-05 2.55999e-06 0)
(-1.52607e-05 8.33974e-06 0)
(-1.94409e-05 1.42944e-05 0)
(-2.16543e-05 1.93248e-05 2.06859e-20)
(-2.07737e-05 2.30813e-05 -2.03767e-20)
(-2.22882e-05 2.86823e-05 -2.52708e-20)
(-4.29722e-07 9.31319e-06 1.93357e-20)
(9.14398e-07 -2.43954e-05 0)
(3.06937e-06 -2.53603e-05 0)
(4.20405e-06 -2.19558e-05 0)
(5.16593e-06 -2.17096e-05 0)
(6.02072e-06 -2.23332e-05 0)
(6.70941e-06 -2.27859e-05 0)
(7.28984e-06 -2.28848e-05 0)
(7.72542e-06 -2.26222e-05 0)
(7.94425e-06 -2.20118e-05 -7.68881e-21)
(7.97436e-06 -2.11918e-05 7.63648e-21)
(7.88035e-06 -2.02789e-05 0)
(7.64968e-06 -1.93377e-05 0)
(7.23428e-06 -1.83787e-05 0)
(6.542e-06 -1.73255e-05 0)
(5.42614e-06 -1.60005e-05 0)
(3.60915e-06 -1.40817e-05 0)
(7.1349e-07 -1.10951e-05 0)
(-3.04544e-06 -7.01342e-06 -1.20998e-20)
(-7.38982e-06 -1.94765e-06 1.19495e-20)
(-1.23446e-05 4.22313e-06 0)
(-1.74343e-05 1.11331e-05 -1.73702e-20)
(-2.08545e-05 1.72391e-05 1.7129e-20)
(-2.0773e-05 2.15536e-05 0)
(-2.31911e-05 2.81792e-05 0)
(-3.71673e-07 9.15617e-06 0)
(8.65481e-07 -2.71128e-05 0)
(3.04759e-06 -2.72558e-05 0)
(4.1673e-06 -2.35852e-05 0)
(5.19171e-06 -2.33873e-05 0)
(6.11054e-06 -2.40771e-05 0)
(6.88392e-06 -2.45953e-05 0)
(7.56313e-06 -2.47353e-05 4.70533e-21)
(8.12614e-06 -2.44881e-05 -4.68126e-21)
(8.49363e-06 -2.38971e-05 -8.22892e-21)
(8.67877e-06 -2.30597e-05 8.17555e-21)
(8.76395e-06 -2.21158e-05 7.03185e-21)
(8.75447e-06 -2.11786e-05 -6.97697e-21)
(8.63263e-06 -2.03187e-05 0)
(8.3484e-06 -1.95245e-05 5.62998e-21)
(7.77656e-06 -1.86573e-05 -1.97517e-22)
(6.67551e-06 -1.74268e-05 -5.32279e-21)
(4.63544e-06 -1.52984e-05 0)
(1.4934e-06 -1.17965e-05 -1.14177e-20)
(-2.57563e-06 -6.89536e-06 1.12818e-20)
(-7.63524e-06 -4.46093e-07 0)
(-1.36023e-05 7.39858e-06 0)
(-1.85658e-05 1.50691e-05 1.90418e-20)
(-1.95773e-05 2.03657e-05 -1.878e-20)
(-2.30809e-05 2.81757e-05 0)
(8.91947e-08 9.56678e-06 0)
(8.05034e-07 -2.95865e-05 0)
(2.99819e-06 -2.89867e-05 0)
(4.16009e-06 -2.52039e-05 0)
(5.32339e-06 -2.51452e-05 0)
(6.4122e-06 -2.60006e-05 0)
(7.40857e-06 -2.67067e-05 0)
(8.35241e-06 -2.70273e-05 0)
(9.19933e-06 -2.69225e-05 0)
(9.88137e-06 -2.64432e-05 0)
(1.04079e-05 -2.5637e-05 0)
(1.08207e-05 -2.4634e-05 -7.55645e-21)
(1.11135e-05 -2.35814e-05 7.50021e-21)
(1.12868e-05 -2.26226e-05 0)
(1.13377e-05 -2.18334e-05 0)
(1.12009e-05 -2.11669e-05 0)
(1.07245e-05 -2.0412e-05 0)
(9.56564e-06 -1.89911e-05 0)
(7.40359e-06 -1.62474e-05 0)
(4.0225e-06 -1.17259e-05 0)
(-8.80494e-07 -5.17728e-06 0)
(-7.3188e-06 3.35109e-06 0)
(-1.37473e-05 1.2599e-05 -1.80589e-20)
(-1.6371e-05 1.94498e-05 1.78209e-20)
(-2.17049e-05 2.87995e-05 0)
(9.7548e-07 1.07966e-05 0)
(7.2865e-07 -3.17851e-05 0)
(2.91587e-06 -3.06027e-05 0)
(4.17906e-06 -2.68888e-05 0)
(5.56392e-06 -2.70883e-05 0)
(6.94091e-06 -2.82428e-05 6.01338e-21)
(8.31221e-06 -2.92934e-05 -5.99324e-21)
(9.70479e-06 -2.99704e-05 0)
(1.10423e-05 -3.01921e-05 0)
(1.22842e-05 -2.99929e-05 -9.64114e-21)
(1.34317e-05 -2.93427e-05 1.85159e-20)
(1.44314e-05 -2.83494e-05 -6.60653e-22)
(1.52059e-05 -2.71442e-05 -8.15448e-21)
(1.57464e-05 -2.5954e-05 0)
(1.61006e-05 -2.48642e-05 0)
(1.62782e-05 -2.38636e-05 5.75926e-21)
(1.63618e-05 -2.29229e-05 -5.7052e-21)
(1.6161e-05 -2.1717e-05 -1.04397e-20)
(1.51546e-05 -1.95478e-05 -1.81282e-22)
(1.27701e-05 -1.56676e-05 1.03972e-20)
(8.37461e-06 -9.38083e-06 1.23609e-20)
(1.72825e-06 -4.40081e-07 -1.22145e-20)
(-6.0432e-06 1.00505e-05 1.69453e-20)
(-1.07921e-05 1.87328e-05 -1.67312e-20)
(-1.87103e-05 3.02963e-05 0)
(2.58027e-06 1.33008e-05 0)
(6.32196e-07 -3.36802e-05 0)
(2.79751e-06 -3.2153e-05 0)
(4.22188e-06 -2.87159e-05 0)
(5.91429e-06 -2.93207e-05 0)
(7.70356e-06 -3.09386e-05 0)
(9.60735e-06 -3.25227e-05 0)
(1.16376e-05 -3.37682e-05 0)
(1.36854e-05 -3.45577e-05 0)
(1.57782e-05 -3.48808e-05 -1.05122e-20)
(1.78754e-05 -3.46248e-05 1.04532e-20)
(1.97791e-05 -3.38743e-05 0)
(2.12908e-05 -3.26628e-05 0)
(2.2441e-05 -3.1037e-05 0)
(2.34446e-05 -2.92e-05 0)
(2.42909e-05 -2.72687e-05 0)
(2.49549e-05 -2.53275e-05 0)
(2.53549e-05 -2.34148e-05 0)
(2.51613e-05 -2.11407e-05 -1.03775e-20)
(2.37658e-05 -1.77261e-05 1.02688e-20)
(2.02944e-05 -1.20647e-05 0)
(1.38941e-05 -3.1872e-06 0)
(5.08888e-06 8.29269e-06 0)
(-1.65535e-06 1.87631e-05 0)
(-1.27024e-05 3.33979e-05 0)
(5.41011e-06 1.78741e-05 0)
(5.1296e-07 -3.52501e-05 0)
(2.64303e-06 -3.36893e-05 0)
(4.28735e-06 -3.07601e-05 0)
(6.37054e-06 -3.19392e-05 0)
(8.69108e-06 -3.42028e-05 0)
(1.12743e-05 -3.65349e-05 0)
(1.4103e-05 -3.86043e-05 0)
(1.70726e-05 -4.02804e-05 0)
(2.03007e-05 -4.14186e-05 0)
(2.36389e-05 -4.18966e-05 0)
(2.67687e-05 -4.16093e-05 9.9615e-21)
(2.96825e-05 -4.05308e-05 -9.8969e-21)
(3.22798e-05 -3.85522e-05 0)
(3.44542e-05 -3.57517e-05 0)
(3.61688e-05 -3.23816e-05 6.80383e-21)
(3.74195e-05 -2.86767e-05 -6.74531e-21)
(3.82225e-05 -2.4925e-05 -1.12372e-20)
(3.8476e-05 -2.12284e-05 1.11299e-20)
(3.78274e-05 -1.72536e-05 0)
(3.5451e-05 -1.19369e-05 0)
(2.99815e-05 -3.69838e-06 0)
(2.09033e-05 7.97064e-06 1.42497e-20)
(1.25411e-05 1.98053e-05 -3.12924e-20)
(-2.73571e-06 3.8342e-05 1.70014e-20)
(9.55415e-06 2.54234e-05 0)
(3.69622e-07 -3.64789e-05 0)
(2.45627e-06 -3.52541e-05 0)
(4.38076e-06 -3.30762e-05 0)
(6.93411e-06 -3.50003e-05 0)
(9.88362e-06 -3.80778e-05 0)
(1.32403e-05 -4.13603e-05 0)
(1.69515e-05 -4.45365e-05 -6.89489e-21)
(2.10386e-05 -4.73389e-05 6.86717e-21)
(2.56543e-05 -4.94695e-05 -1.25541e-20)
(3.062e-05 -5.08932e-05 1.24896e-20)
(3.56388e-05 -5.13644e-05 -1.1064e-20)
(4.05458e-05 -5.07065e-05 1.09949e-20)
(4.5169e-05 -4.88167e-05 0)
(4.92591e-05 -4.55794e-05 -8.52076e-21)
(5.259e-05 -4.09983e-05 8.45471e-21)
(5.50284e-05 -3.52525e-05 0)
(5.64686e-05 -2.86379e-05 0)
(5.69217e-05 -2.16314e-05 -1.11142e-20)
(5.64777e-05 -1.47829e-05 6.30395e-22)
(5.48072e-05 -8.18975e-06 1.02738e-20)
(5.04291e-05 -2.53678e-07 0)
(4.19001e-05 1.06234e-05 -1.26124e-20)
(3.27323e-05 2.27912e-05 1.2471e-20)
(1.26683e-05 4.58031e-05 0)
(1.59836e-05 3.76496e-05 -1.59716e-20)
(2.06917e-07 -3.73446e-05 0)
(2.25664e-06 -3.68436e-05 0)
(4.53019e-06 -3.56808e-05 0)
(7.63856e-06 -3.85831e-05 0)
(1.12875e-05 -4.27367e-05 0)
(1.54079e-05 -4.72246e-05 0)
(2.01127e-05 -5.16882e-05 0)
(2.56458e-05 -5.5644e-05 0)
(3.19699e-05 -5.88995e-05 0)
(3.88051e-05 -6.13671e-05 0)
(4.59689e-05 -6.28198e-05 0)
(5.32823e-05 -6.30246e-05 0)
(6.04903e-05 -6.17208e-05 0)
(6.72825e-05 -5.86854e-05 0)
(7.32734e-05 -5.36722e-05 0)
(7.81139e-05 -4.6489e-05 0)
(8.14883e-05 -3.72173e-05 0)
(8.30525e-05 -2.60812e-05 0)
(8.26084e-05 -1.38203e-05 0)
(8.06606e-05 -2.15052e-06 0)
(7.678e-05 8.18138e-06 0)
(6.93639e-05 1.88021e-05 0)
(6.09191e-05 2.96912e-05 0)
(3.64823e-05 5.78257e-05 0)
(2.63417e-05 5.80339e-05 0)
(5.98491e-08 -3.78591e-05 1.87225e-21)
(2.07728e-06 -3.85354e-05 2.13239e-21)
(4.68058e-06 -3.86953e-05 -4.27691e-21)
(8.31474e-06 -4.27513e-05 8.39643e-21)
(1.26725e-05 -4.81696e-05 -8.37867e-21)
(1.77031e-05 -5.4049e-05 0)
(2.37593e-05 -5.97028e-05 7.9136e-21)
(3.09716e-05 -6.47966e-05 7.49841e-21)
(3.90911e-05 -6.92322e-05 -3.01912e-20)
(4.79843e-05 -7.28293e-05 1.48035e-20)
(5.7528e-05 -7.5341e-05 1.366e-20)
(6.75391e-05 -7.64758e-05 -1.35816e-20)
(7.77414e-05 -7.59092e-05 -1.21538e-20)
(8.77728e-05 -7.3371e-05 2.33563e-20)
(9.73237e-05 -6.85624e-05 -8.65632e-22)
(0.00010591 -6.09733e-05 8.39355e-21)
(0.00011295 -5.02562e-05 -1.85056e-20)
(0.000117793 -3.62537e-05 -1.43902e-20)
(0.000119465 -1.89115e-05 2.65951e-20)
(0.000117641 8.14298e-07 -1.22182e-20)
(0.000113138 1.9202e-05 0)
(0.000105885 3.47447e-05 8.9256e-21)
(9.97468e-05 4.55362e-05 -1.85107e-20)
(7.30979e-05 8.08961e-05 9.57335e-21)
(4.42713e-05 9.4193e-05 1.00662e-20)
(-8.80629e-08 -3.81548e-05 0)
(1.8709e-06 -4.05111e-05 0)
(4.87573e-06 -4.22121e-05 0)
(9.12223e-06 -4.75295e-05 0)
(1.41991e-05 -5.41899e-05 0)
(2.04289e-05 -6.10105e-05 0)
(2.80937e-05 -6.74725e-05 0)
(3.69975e-05 -7.34599e-05 0)
(4.70283e-05 -7.87914e-05 0)
(5.81413e-05 -8.32838e-05 0)
(7.02603e-05 -8.6759e-05 0)
(8.32272e-05 -8.89948e-05 0)
(9.66892e-05 -8.96339e-05 0)
(0.000110294 -8.80964e-05 0)
(0.000123885 -8.38233e-05 0)
(0.000137104 -7.65681e-05 0)
(0.000149269 -6.60352e-05 0)
(0.000159612 -5.16697e-05 0)
(0.000167188 -3.30949e-05 -1.49243e-20)
(0.000169964 -8.86469e-06 1.47936e-20)
(0.000167487 1.99479e-05 0)
(0.000160388 4.77754e-05 0)
(0.000157964 6.78953e-05 0)
(0.000128679 0.000125372 0)
(7.14317e-05 0.000180255 0)
(-1.87607e-07 -3.84641e-05 0)
(1.77283e-06 -4.29554e-05 0)
(5.26654e-06 -4.63576e-05 0)
(1.0206e-05 -5.30354e-05 0)
(1.65234e-05 -6.06961e-05 0)
(2.43876e-05 -6.83076e-05 0)
(3.36261e-05 -7.55389e-05 0)
(4.42306e-05 -8.21427e-05 0)
(5.61944e-05 -8.78987e-05 0)
(6.94494e-05 -9.26353e-05 0)
(8.3896e-05 -9.61933e-05 -1.6346e-20)
(9.94416e-05 -9.84143e-05 1.62592e-20)
(0.000116123 -9.91365e-05 0)
(0.000133929 -9.80184e-05 0)
(0.000152338 -9.45464e-05 0)
(0.000170571 -8.8126e-05 0)
(0.000188452 -7.82121e-05 0)
(0.000205634 -6.47781e-05 0)
(0.000221922 -4.81075e-05 0)
(0.000236639 -2.81016e-05 0)
(0.000246113 -2.97118e-06 0)
(0.000249632 2.40139e-05 -6.64994e-21)
(0.000263366 3.97774e-05 6.58445e-21)
(0.000246879 8.90718e-05 0)
(7.28822e-05 0.000329225 0)
(-2.27038e-07 -3.88731e-05 0)
(1.85761e-06 -4.57094e-05 0)
(5.91416e-06 -5.06784e-05 0)
(1.18695e-05 -5.84181e-05 0)
(1.9478e-05 -6.68275e-05 0)
(2.86744e-05 -7.52094e-05 0)
(3.94837e-05 -8.30313e-05 0)
(5.1908e-05 -8.9913e-05 0)
(6.59224e-05 -9.56099e-05 0)
(8.14828e-05 -9.99138e-05 0)
(9.85396e-05 -0.000102596 0)
(0.000117052 -0.000103388 0)
(0.000137021 -0.000102007 0)
(0.000158442 -9.82954e-05 0)
(0.000181363 -9.20516e-05 0)
(0.000206106 -8.26844e-05 0)
(0.00023234 -6.94878e-05 0)
(0.000259347 -5.2188e-05 0)
(0.000287394 -3.00039e-05 0)
(0.000316886 -4.14691e-06 0)
(0.000347954 2.56364e-05 0)
(0.00038489 6.19042e-05 0)
(0.000439372 0.000104318 0)
(0.00055775 0.000155988 0)
(0.000925327 0.000442233 0)
(-1.98944e-07 -3.94622e-05 0)
(2.18543e-06 -4.8956e-05 0)
(6.84364e-06 -5.57227e-05 0)
(1.36148e-05 -6.48694e-05 0)
(2.22097e-05 -7.47464e-05 0)
(3.25701e-05 -8.44988e-05 0)
(4.4705e-05 -9.35903e-05 0)
(5.86014e-05 -0.000101662 0)
(7.42392e-05 -0.000108468 0)
(9.15991e-05 -0.000113805 0)
(0.000110669 -0.000117456 0)
(0.000131456 -0.000119172 0)
(0.000153988 -0.000118675 0)
(0.000178312 -0.000115695 0)
(0.000204533 -0.000109964 0)
(0.000232847 -0.000101324 0)
(0.000263525 -8.99782e-05 0)
(0.000297158 -7.57011e-05 0)
(0.000333018 -5.82162e-05 0)
(0.000370989 -3.79449e-05 0)
(0.000413393 -1.57365e-05 0)
(0.000463737 7.83574e-06 0)
(0.000526271 2.7749e-05 0)
(0.000598471 3.39376e-05 0)
(0.000638699 6.89836e-06 0)
(-1.79978e-07 -4.02824e-05 0)
(2.49915e-06 -5.28125e-05 0)
(7.69319e-06 -6.17938e-05 0)
(1.52054e-05 -7.28527e-05 0)
(2.47173e-05 -8.45338e-05 0)
(3.61681e-05 -9.60323e-05 0)
(4.95345e-05 -0.00010683 0)
(6.47985e-05 -0.000116569 0)
(8.19476e-05 -0.000125004 0)
(0.000100979 -0.000131938 0)
(0.000121907 -0.000137171 0)
(0.000144773 -0.000140474 0)
(0.000169649 -0.000141593 0)
(0.000196639 -0.000140258 0)
(0.000225891 -0.0001362 0)
(0.000257603 -0.000129232 0)
(0.00029203 -0.000119321 0)
(0.000329541 -0.000106673 0)
(0.000370351 -9.20349e-05 0)
(0.000414199 -7.50919e-05 0)
(0.000461513 -5.67907e-05 0)
(0.000512925 -3.90877e-05 0)
(0.000566068 -2.63779e-05 0)
(0.000608698 -2.53747e-05 0)
(0.000613364 -3.53732e-05 0)
(-1.63351e-07 -4.12697e-05 0)
(2.7681e-06 -5.70951e-05 0)
(8.42089e-06 -6.85333e-05 0)
(1.65918e-05 -8.17248e-05 0)
(2.69277e-05 -9.54082e-05 0)
(3.93461e-05 -0.000108854 0)
(5.38084e-05 -0.000121561 0)
(7.02912e-05 -0.00013318 0)
(8.87825e-05 -0.00014348 0)
(0.000109289 -0.000152279 0)
(0.000131841 -0.000159399 0)
(0.000156496 -0.000164645 0)
(0.000183348 -0.000167793 0)
(0.000212524 -0.000168609 0)
(0.000244191 -0.000166868 0)
(0.000278546 -0.000162393 0)
(0.000315798 -0.000155108 0)
(0.000356122 -0.000145105 0)
(0.000399608 -0.000132756 0)
(0.000445938 -0.000118496 0)
(0.000494503 -0.000102621 0)
(0.000543824 -8.60613e-05 0)
(0.000589544 -6.97425e-05 0)
(0.00062202 -5.25646e-05 0)
(0.000627132 -2.33173e-05 0)
(-1.55476e-07 -4.23739e-05 0)
(2.96721e-06 -6.16992e-05 0)
(8.98404e-06 -7.58023e-05 0)
(1.76953e-05 -9.13133e-05 0)
(2.87141e-05 -0.000107184 0)
(4.19389e-05 -0.000122751 0)
(5.73169e-05 -0.000137542 0)
(7.48147e-05 -0.000151224 0)
(9.44184e-05 -0.000163583 0)
(0.000116133 -0.000174461 0)
(0.000139991 -0.000183709 0)
(0.000166052 -0.000191161 0)
(0.000194405 -0.000196628 0)
(0.000225173 -0.00019991 0)
(0.000258499 -0.000200809 0)
(0.000294538 -0.000199158 0)
(0.000333417 -0.000194851 0)
(0.000375181 -0.000187865 0)
(0.000419676 -0.000178263 0)
(0.00046638 -0.00016616 0)
(0.000514213 -0.000151392 0)
(0.000561069 -0.000133576 0)
(0.000603065 -0.000111128 0)
(0.000634361 -7.93824e-05 0)
(0.000649551 -2.71151e-05 0)
(-1.56155e-07 -4.35606e-05 0)
(3.09575e-06 -6.65396e-05 0)
(9.38344e-06 -8.34712e-05 0)
(1.8509e-05 -0.000101446 0)
(3.00628e-05 -0.000119629 0)
(4.39234e-05 -0.000137425 0)
(6.00233e-05 -0.000154396 0)
(7.83195e-05 -0.000170229 0)
(9.87871e-05 -0.00018473 0)
(0.000121425 -0.000197768 0)
(0.000146254 -0.00020922 0)
(0.000173321 -0.000218946 0)
(0.000202697 -0.000226787 0)
(0.000234474 -0.000232561 0)
(0.000268752 -0.000236081 0)
(0.00030562 -0.000237162 0)
(0.000345116 -0.000235635 0)
(0.000387165 -0.000231332 0)
(0.00043148 -0.000224054 0)
(0.000477424 -0.000213457 0)
(0.000523852 -0.000198841 0)
(0.000568908 -0.000178825 0)
(0.000609938 -0.000150631 0)
(0.000644019 -0.000108886 0)
(0.000669949 -4.47781e-05 0)
(-1.64821e-07 -4.4795e-05 0)
(3.15881e-06 -7.15394e-05 0)
(9.62599e-06 -9.143e-05 0)
(1.90459e-05 -0.000111986 0)
(3.09881e-05 -0.000132579 0)
(4.53161e-05 -0.000152689 0)
(6.19483e-05 -0.000171908 0)
(8.08271e-05 -0.00018995 0)
(0.000101917 -0.000206642 0)
(0.000125199 -0.000221873 0)
(0.00015068 -0.000235546 0)
(0.000178383 -0.000247544 0)
(0.00020835 -0.000257724 0)
(0.000240633 -0.000265916 0)
(0.00027528 -0.000271924 0)
(0.000312316 -0.000275529 0)
(0.000351703 -0.00027648 0)
(0.000393291 -0.000274463 0)
(0.000436746 -0.000269038 0)
(0.000481466 -0.000259515 0)
(0.000526506 -0.000244757 0)
(0.000570562 -0.000222889 0)
(0.000612181 -0.000190853 0)
(0.000650365 -0.000143889 0)
(0.000685789 -7.55672e-05 0)
(-1.80284e-07 -4.60442e-05 0)
(3.1623e-06 -7.66268e-05 0)
(9.72769e-06 -9.95753e-05 0)
(1.93284e-05 -0.000122803 0)
(3.15243e-05 -0.000145883 0)
(4.61635e-05 -0.000168367 0)
(6.31501e-05 -0.000189882 0)
(8.24141e-05 -0.000210165 0)
(0.000103902 -0.000229064 0)
(0.000127581 -0.00024649 0)
(0.000153434 -0.000262362 0)
(0.000181459 -0.00027658 0)
(0.000211665 -0.000289012 0)
(0.000244064 -0.000299489 0)
(0.000278659 -0.000307797 0)
(0.000315422 -0.000313677 0)
(0.00035427 -0.0003168 0)
(0.000395027 -0.000316725 0)
(0.000437384 -0.000312836 0)
(0.00048087 -0.000304222 0)
(0.000524849 -0.000289522 0)
(0.000568604 -0.000266733 0)
(0.000611588 -0.000233018 0)
(0.000653977 -0.00018462 0)
(0.000697308 -0.000117083 0)
(-2.0131e-07 -4.72798e-05 0)
(3.11562e-06 -8.17379e-05 0)
(9.70552e-06 -0.000107814 0)
(1.93894e-05 -0.00013378 0)
(3.17177e-05 -0.000159402 0)
(4.65287e-05 -0.000184301 0)
(6.37141e-05 -0.00020814 0)
(8.31881e-05 -0.000230677 0)
(0.000104884 -0.00025178 0)
(0.000128749 -0.000271375 0)
(0.000154746 -0.000289398 0)
(0.000182847 -0.00030576 0)
(0.000213032 -0.000320333 0)
(0.00024528 -0.000332943 0)
(0.00027956 -0.00034336 0)
(0.000315813 -0.000351284 0)
(0.00035394 -0.000356326 0)
(0.000393778 -0.000357961 0)
(0.000435096 -0.000355466 0)
(0.000477591 -0.000347836 0)
(0.000520944 -0.000333669 0)
(0.000564929 -0.000311076 0)
(0.000609647 -0.000277639 0)
(0.00065589 -0.000230538 0)
(0.000705578 -0.000166913 0)
(-2.26368e-07 -4.84777e-05 0)
(3.02702e-06 -8.68183e-05 0)
(9.58176e-06 -0.000116067 0)
(1.92628e-05 -0.000144815 0)
(3.16216e-05 -0.000173015 0)
(4.64859e-05 -0.000200354 0)
(6.37361e-05 -0.000226529 0)
(8.3276e-05 -0.000251319 0)
(0.000105022 -0.000274608 0)
(0.000128908 -0.000296336 0)
(0.000154875 -0.000316451 0)
(0.000182876 -0.000334872 0)
(0.000212867 -0.000351474 0)
(0.000244805 -0.000366077 0)
(0.000278638 -0.000378436 0)
(0.000314298 -0.000388227 0)
(0.000351694 -0.00039502 0)
(0.000390707 -0.00039825 0)
(0.000431201 -0.000397161 0)
(0.000473046 -0.000390746 0)
(0.000516191 -0.000377693 0)
(0.000560776 -0.00035635 0)
(0.000607314 -0.000324776 0)
(0.000656924 -0.000280929 0)
(0.000711548 -0.000223041 0)
(-2.54106e-07 -4.96194e-05 0)
(2.90711e-06 -9.18231e-05 0)
(9.37583e-06 -0.000124266 0)
(1.89865e-05 -0.000155823 0)
(3.12901e-05 -0.000186622 0)
(4.61098e-05 -0.000216413 0)
(6.33178e-05 -0.000244925 0)
(8.28056e-05 -0.000271956 0)
(0.000104481 -0.000297405 0)
(0.000128261 -0.000321224 0)
(0.000154075 -0.000343372 0)
(0.000181858 -0.000363774 0)
(0.000211554 -0.000382308 0)
(0.000243105 -0.000398792 0)
(0.000276455 -0.000412973 0)
(0.000311541 -0.000424516 0)
(0.000348297 -0.00043298 0)
(0.000386663 -0.000437796 0)
(0.000426599 -0.000438227 0)
(0.000468127 -0.000433339 0)
(0.000511402 -0.000421975 0)
(0.000556807 -0.00040277 0)
(0.00060509 -0.000374234 0)
(0.000657502 -0.000334944 0)
(0.000715892 -0.000283858 0)
(-2.82993e-07 -5.06909e-05 0)
(2.76374e-06 -9.67174e-05 0)
(9.10976e-06 -0.000132359 0)
(1.85938e-05 -0.000166735 0)
(3.07757e-05 -0.00020014 0)
(4.54737e-05 -0.000232384 0)
(6.25532e-05 -0.000263226 0)
(8.19003e-05 -0.000292482 0)
(0.000103412 -0.000320064 0)
(0.000126997 -0.000345936 0)
(0.000152574 -0.000370065 0)
(0.000180071 -0.000392384 0)
(0.000209422 -0.000412776 0)
(0.000240566 -0.000431063 0)
(0.000273452 -0.000446994 0)
(0.000308035 -0.000460237 0)
(0.000344282 -0.000470362 0)
(0.000382193 -0.000476828 0)
(0.000421815 -0.000478958 0)
(0.000463291 -0.000475926 0)
(0.000506918 -0.000466764 0)
(0.000553225 -0.000450391 0)
(0.000603069 -0.00042571 0)
(0.000657706 -0.000391778 0)
(0.000718832 -0.000348047 0)
(-3.11892e-07 -5.16833e-05 0)
(2.60634e-06 -0.000101476 0)
(8.80001e-06 -0.000140304 0)
(1.81176e-05 -0.000177498 0)
(3.01253e-05 -0.000213506 0)
(4.46419e-05 -0.000248197 0)
(6.15294e-05 -0.000281357 0)
(8.06672e-05 -0.00031282 0)
(0.000101949 -0.000342509 0)
(0.000125278 -0.0003704 0)
(0.000150566 -0.000396469 0)
(0.000177738 -0.00042066 0)
(0.000206726 -0.000442863 0)
(0.000237475 -0.000462908 0)
(0.000269943 -0.000480558 0)
(0.000304107 -0.000495497 0)
(0.000339972 -0.000507327 0)
(0.000377589 -0.000515553 0)
(0.00041708 -0.000519581 0)
(0.000458673 -0.000518714 0)
(0.000502752 -0.000512171 0)
(0.000549921 -0.000499134 0)
(0.000601057 -0.000478832 0)
(0.000657353 -0.000450684 0)
(0.000720315 -0.000414481 0)
(-3.39541e-07 -5.25915e-05 0)
(2.44066e-06 -0.00010608 0)
(8.4642e-06 -0.000148072 0)
(1.75837e-05 -0.000188071 0)
(2.938e-05 -0.000226673 0)
(4.36712e-05 -0.000263798 0)
(6.03175e-05 -0.000299261 0)
(7.91986e-05 -0.000332912 0)
(0.000100203 -0.000364686 0)
(0.000123234 -0.000394571 0)
(0.000148202 -0.000422552 0)
(0.00017503 -0.000448585 0)
(0.000203654 -0.000472572 0)
(0.000234029 -0.00049436 0)
(0.000266125 -0.00051373 0)
(0.000299943 -0.000530396 0)
(0.000335522 -0.000544001 0)
(0.000372956 -0.000554115 0)
(0.000412418 -0.000560233 0)
(0.000454193 -0.000561791 0)
(0.000498712 -0.000558184 0)
(0.000546597 -0.000548819 0)
(0.000598696 -0.000533187 0)
(0.000656096 -0.000510977 0)
(0.000720105 -0.000482206 0)
(-3.65266e-07 -5.34141e-05 0)
(2.27376e-06 -0.00011052 0)
(8.1133e-06 -0.000155642 0)
(1.70158e-05 -0.000198426 0)
(2.85724e-05 -0.000239604 0)
(4.26057e-05 -0.000279147 0)
(5.89774e-05 -0.000316897 0)
(7.7565e-05 -0.000352718 0)
(9.82602e-05 -0.000386559 0)
(0.000120964 -0.000418418 0)
(0.000145589 -0.000448293 0)
(0.000172063 -0.000476153 0)
(0.000200328 -0.000501917 0)
(0.000230345 -0.000525451 0)
(0.000262103 -0.000546563 0)
(0.000295621 -0.000565003 0)
(0.000330966 -0.000580465 0)
(0.000368264 -0.000592587 0)
(0.000407722 -0.00060096 0)
(0.000449652 -0.000605142 0)
(0.000494501 -0.000604685 0)
(0.000542875 -0.000599184 0)
(0.000595559 -0.000588334 0)
(0.000653518 -0.000572019 0)
(0.000717873 -0.000550408 0)
(-3.88197e-07 -5.41525e-05 0)
(2.10878e-06 -0.000114789 0)
(7.7593e-06 -0.000163001 0)
(1.64296e-05 -0.000208543 0)
(2.77284e-05 -0.000252275 0)
(4.14814e-05 -0.000294217 0)
(5.75518e-05 -0.000334234 0)
(7.58212e-05 -0.000372209 0)
(9.61812e-05 -0.000408101 0)
(0.000118537 -0.00044192 0)
(0.000142804 -0.000473679 0)
(0.000168914 -0.000503361 0)
(0.000196816 -0.000530904 0)
(0.000226482 -0.000556198 0)
(0.000257912 -0.000579083 0)
(0.000291144 -0.000599349 0)
(0.000326262 -0.000616743 0)
(0.000363412 -0.000630975 0)
(0.000402818 -0.000641724 0)
(0.0004448 -0.000648661 0)
(0.000489794 -0.000651474 0)
(0.000538369 -0.000649906 0)
(0.000591232 -0.00064381 0)
(0.000649221 -0.00063321 0)
(0.00071328 -0.000618371 0)
(-4.08063e-07 -5.481e-05 0)
(1.95038e-06 -0.000118887 0)
(7.40752e-06 -0.000170141 0)
(1.58391e-05 -0.000218408 0)
(2.68665e-05 -0.000264668 0)
(4.03222e-05 -0.000308986 0)
(5.60735e-05 -0.000351251 0)
(7.40032e-05 -0.000391362 0)
(9.40087e-05 -0.000429291 0)
(0.000115997 -0.00046506 0)
(0.000139889 -0.000498696 0)
(0.000165621 -0.000530199 0)
(0.000193148 -0.000559529 0)
(0.000222452 -0.000586601 0)
(0.000253542 -0.000611288 0)
(0.000286467 -0.000633424 0)
(0.000321321 -0.00065281 0)
(0.00035826 -0.00066922 0)
(0.000397511 -0.00068242 0)
(0.000439384 -0.000692177 0)
(0.000484289 -0.000698292 0)
(0.000532741 -0.000700627 0)
(0.000585363 -0.000699151 0)
(0.00064287 -0.000693986 0)
(0.000706047 -0.000685456 0)
(-4.24352e-07 -5.53917e-05 0)
(1.79934e-06 -0.000122814 0)
(7.06492e-06 -0.000177059 0)
(1.52514e-05 -0.000228014 0)
(2.59995e-05 -0.000276771 0)
(3.91459e-05 -0.000323438 0)
(5.45615e-05 -0.00036793 0)
(7.21357e-05 -0.000410159 0)
(9.1767e-05 -0.00045011 0)