/*--------------------------------*- C++ -*----------------------------------*\
  =========                 |
  \\      /  F ield         | OpenFOAM: The Open Source CFD Toolbox
   \\    /   O peration     | Website:  https://openfoam.org
    \\  /    A nd           | Version:  13
     \\/     M anipulation  |
\*---------------------------------------------------------------------------*/
FoamFile
{
    format      ascii;
    class       volVectorField;
    location    "8";
    object      U;
}
// * * * * * * * * * * * * * * * * * * * * * * * * * * * * * * * * * * * * * //

dimensions      [0 1 -1 0 0 0 0];

internalField   nonuniform List<vector> 
6440
(
(-0.0027873 -0.0109104 0)
(0.0189873 -0.0538953 0)
(0.0602309 -0.0724536 -9.26686e-16)
(0.111232 -0.0739491 7.08777e-16)
(0.164882 -0.0688193 0)
(0.217096 -0.0631993 -9.77375e-16)
(0.268245 -0.0587503 8.52417e-16)
(0.317819 -0.0552819 0)
(0.365473 -0.0520954 0)
(0.410539 -0.0487459 0)
(0.452166 -0.0448899 1.17124e-15)
(0.490437 -0.0405413 -2.20362e-15)
(0.52414 -0.0354871 1.04863e-15)
(0.552066 -0.0293339 0)
(0.572406 -0.0217706 -1.97601e-15)
(0.583376 -0.0123288 1.96648e-15)
(0.58229 -0.000797761 0)
(0.566235 0.0140577 0)
(0.53236 0.0304795 0)
(0.477801 0.0501697 0)
(0.400059 0.0690312 -2.53971e-15)
(0.299092 0.0780676 6.12148e-15)
(0.18423 0.0673932 -4.00903e-15)
(0.0871073 0.0416203 -5.9057e-15)
(0.0261692 0.0276512 7.95022e-15)
(0.00107816 -0.041044 0)
(0.0391826 -0.151632 0)
(0.0869769 -0.188008 -6.28034e-16)
(0.138793 -0.186413 5.17565e-16)
(0.191708 -0.17354 0)
(0.244712 -0.160067 -7.83678e-16)
(0.297707 -0.148047 1.40211e-15)
(0.350539 -0.137257 -6.3405e-16)
(0.402808 -0.126684 0)
(0.454148 -0.115598 0)
(0.503936 -0.103245 0)
(0.551285 -0.0890173 -9.42151e-16)
(0.59503 -0.0723658 8.98505e-16)
(0.633883 -0.0527919 8.67166e-16)
(0.666103 -0.0301333 -8.49356e-16)
(0.692092 -0.00401081 0)
(0.705435 0.0257814 0)
(0.704163 0.0589858 0)
(0.688796 0.0952192 0)
(0.657151 0.133625 0)
(0.607144 0.172481 -1.73867e-15)
(0.53594 0.206165 1.88208e-15)
(0.427432 0.222059 0)
(0.288924 0.20105 -2.90979e-15)
(0.11357 0.161211 8.88218e-15)
(0.0112939 -0.0923665 0)
(0.0535149 -0.243152 0)
(0.0964799 -0.281543 0)
(0.140662 -0.275378 0)
(0.186082 -0.259295 0)
(0.233094 -0.244255 0)
(0.281886 -0.232006 6.36409e-16)
(0.332488 -0.221566 -5.82482e-16)
(0.384646 -0.211295 0)
(0.437703 -0.199618 0)
(0.490662 -0.184952 0)
(0.542331 -0.166029 0)
(0.591124 -0.141759 0)
(0.635229 -0.111324 8.13172e-16)
(0.672682 -0.0742427 -2.4066e-15)
(0.701446 -0.0303488 1.61514e-15)
(0.719641 0.0203173 0)
(0.72519 0.0767548 0)
(0.71659 0.137727 0)
(0.692266 0.201204 0)
(0.651619 0.26562 0)
(0.596418 0.328408 0)
(0.516426 0.381916 1.74913e-15)
(0.407829 0.398572 -2.09433e-15)
(0.197479 0.35167 2.82583e-15)
(0.0212465 -0.16593 0)
(0.0592772 -0.328927 0)
(0.09388 -0.358029 -4.22175e-16)
(0.128917 -0.34789 3.85823e-16)
(0.166512 -0.332472 0)
(0.207759 -0.320001 -6.526e-16)
(0.253184 -0.311075 5.979e-16)
(0.302848 -0.304047 0)
(0.356342 -0.296608 1.004e-15)
(0.413247 -0.286465 -9.27466e-16)
(0.47252 -0.271318 8.62966e-16)
(0.532508 -0.249029 -1.62475e-15)
(0.591079 -0.217633 7.75355e-16)
(0.645655 -0.175606 0)
(0.693293 -0.121874 0)
(0.730972 -0.0560974 0)
(0.755757 0.0215516 1.58396e-15)
(0.764563 0.106699 -9.613e-20)
(0.755754 0.196486 -1.4436e-15)
(0.728502 0.286295 0)
(0.684982 0.373504 0)
(0.629431 0.457949 1.445e-15)
(0.558297 0.540071 -1.52455e-15)
(0.484774 0.589119 -1.70358e-15)
(0.274272 0.573853 4.18644e-15)
(0.0255475 -0.244995 0)
(0.0553025 -0.399082 0)
(0.0808797 -0.417132 -3.89676e-16)
(0.106987 -0.407204 3.648e-16)
(0.136755 -0.396298 0)
(0.171744 -0.389447 -6.28318e-16)
(0.212725 -0.386598 5.74831e-16)
(0.260357 -0.385773 0)
(0.315013 -0.384154 9.53869e-16)
(0.376544 -0.378676 -8.72374e-16)
(0.443971 -0.366004 8.0384e-16)
(0.515614 -0.342845 -1.50042e-15)
(0.588653 -0.306135 7.11099e-16)
(0.659326 -0.253473 0)
(0.723184 -0.183193 1.36165e-15)
(0.77543 -0.0948192 -1.39158e-15)
(0.810995 0.0113389 1.47788e-15)
(0.825504 0.129143 -7.91671e-20)
(0.816181 0.254041 -1.31568e-15)
(0.78292 0.377157 0)
(0.730798 0.491899 1.26492e-15)
(0.670064 0.595776 1.97537e-19)
(0.595305 0.695865 -1.33633e-15)
(0.541672 0.766214 -1.46086e-15)
(0.34119 0.76268 1.69126e-15)
(0.0230601 -0.311913 0)
(0.0431494 -0.446248 0)
(0.0595331 -0.458567 -3.75814e-16)
(0.0760949 -0.453632 3.57776e-16)
(0.0968789 -0.450245 0)
(0.123772 -0.451861 -6.2198e-16)
(0.158509 -0.458119 5.67151e-16)
(0.202612 -0.466673 0)
(0.25715 -0.473974 9.20257e-16)
(0.322927 -0.475971 -8.30312e-16)
(0.399451 -0.468009 7.53978e-16)
(0.484968 -0.445178 -1.38926e-15)
(0.576036 -0.402993 6.51929e-16)
(0.667595 -0.3379 0)
(0.753082 -0.247611 -1.23991e-15)
(0.825313 -0.132134 1.27549e-15)
(0.876454 0.00722592 1.37634e-15)
(0.899539 0.16132 -7.72168e-20)
(0.88889 0.323277 -1.1946e-15)
(0.846473 0.48037 0)
(0.782669 0.622765 -1.13158e-15)
(0.711448 0.744852 2.29682e-15)
(0.628949 0.854271 -1.19416e-15)
(0.583078 0.931743 -1.27793e-15)
(0.391858 0.912391 1.45613e-15)
(0.0156335 -0.358276 0)
(0.0228195 -0.473554 0)
(0.0278787 -0.483173 -3.76269e-16)
(0.0325945 -0.485541 3.63963e-16)
(0.0423798 -0.492908 0)
(0.0594991 -0.506618 -6.36385e-16)
(0.0860844 -0.526079 5.75602e-16)
(0.124558 -0.548588 0)
(0.177209 -0.569487 9.07779e-16)
(0.245741 -0.582968 -8.04086e-16)
(0.33025 -0.582968 7.17315e-16)
(0.429816 -0.562582 -1.30094e-15)
(0.540884 -0.514972 6.03041e-16)
(0.656823 -0.434562 0)
(0.767842 -0.317821 0)
(0.863135 -0.166234 0)
(0.931533 0.0166339 1.31116e-15)
(0.964949 0.21371 -5.96524e-20)
(0.949388 0.415876 -1.10376e-15)
(0.899226 0.606086 0)
(0.817659 0.771313 0)
(0.7361 0.904274 1.05051e-15)
(0.645448 1.01384 -1.0854e-15)
(0.602419 1.08455 -1.1637e-15)
(0.424418 1.0238 1.31819e-15)
(0.00278942 -0.379516 0)
(-0.00776035 -0.478778 0)
(-0.0186939 -0.485766 -3.95372e-16)
(-0.0285692 -0.49757 3.88554e-16)
(-0.0318585 -0.518039 0)
(-0.0265295 -0.547165 -6.81382e-16)
(-0.0102211 -0.584756 6.09738e-16)
(0.0200953 -0.627332 0)
(0.0672674 -0.668106 9.25549e-16)
(0.134329 -0.699638 -8.0274e-16)
(0.222824 -0.714708 7.00455e-16)
(0.33361 -0.702687 -1.24565e-15)
(0.464001 -0.652219 5.69079e-16)
(0.606362 -0.554846 0)
(0.746326 -0.40398 0)
(0.865948 -0.204704 0)
(0.946526 0.0381351 1.32278e-15)
(0.985074 0.290331 8.30589e-20)
(0.942507 0.534856 -1.06654e-15)
(0.888937 0.751956 0)
(0.800484 0.931363 0)
(0.715118 1.06634 9.98309e-16)
(0.625628 1.16528 -1.035e-15)
(0.590724 1.21421 -1.0971e-15)
(0.430188 1.07579 2.53727e-15)
(-0.0165585 -0.373241 0)
(-0.0496442 -0.449974 0)
(-0.0817404 -0.463801 0)
(-0.10956 -0.487233 0)
(-0.128708 -0.522223 6.67522e-16)
(-0.137702 -0.568299 -6.36443e-16)
(-0.134393 -0.624973 6.1261e-16)
(-0.116056 -0.688655 -5.74591e-16)
(-0.080123 -0.753512 9.98445e-16)
(-0.0229042 -0.812617 -8.79304e-19)
(0.0604378 -0.854443 -9.37775e-19)
(0.174031 -0.860029 -6.21988e-16)
(0.317511 -0.812627 -5.56734e-16)
(0.486119 -0.698772 1.04923e-15)
(0.660628 -0.50395 -1.58252e-15)
(0.810137 -0.24437 1.17513e-15)
(0.895984 0.0686207 0)
(0.91649 0.384404 1.2616e-15)
(0.877251 0.678101 -1.1008e-15)
(0.799212 0.913649 1.02111e-15)
(0.711097 1.09136 1.33787e-18)
(0.636178 1.21388 1.18837e-18)
(0.557234 1.29234 -1.02672e-15)
(0.542334 1.29798 0)
(0.402596 1.0517 -1.27273e-15)
(-0.0409931 -0.340032 0)
(-0.101823 -0.398869 0)
(-0.157504 -0.41986 0)
(-0.205118 -0.455208 0)
(-0.243336 -0.503879 -5.53626e-16)
(-0.271605 -0.565637 5.05182e-16)
(-0.288136 -0.640185 -4.65562e-16)
(-0.290168 -0.725254 4.35587e-16)
(-0.273956 -0.816076 0)
(-0.234894 -0.904553 -8.20041e-16)
(-0.167945 -0.975186 1.29124e-18)
(-0.0678326 -1.00578 6.6549e-16)
(0.0736907 -0.968636 0)
(0.261943 -0.837194 -5.4607e-16)
(0.479437 -0.572199 1.67897e-15)
(0.691595 -0.212618 -1.36537e-15)
(0.780006 0.147199 1.89575e-15)
(0.757192 0.491415 -1.50078e-15)
(0.682556 0.815808 0)
(0.604819 1.06313 -1.13118e-15)
(0.540035 1.2299 2.15569e-15)
(0.492064 1.327 -2.12066e-15)
(0.433595 1.3734 1.01033e-15)
(0.453416 1.3403 0)
(0.333013 0.927488 -1.3186e-15)
(-0.0684348 -0.281886 0)
(-0.161338 -0.324468 0)
(-0.241542 -0.35456 0)
(-0.310878 -0.400742 0)
(-0.370168 -0.461319 4.79734e-16)
(-0.420305 -0.53667 -4.22931e-16)
(-0.460887 -0.627006 3.77095e-16)
(-0.490142 -0.731188 -3.40997e-16)
(-0.504875 -0.844971 6.25525e-16)
(-0.500062 -0.959849 -9.22123e-19)
(-0.468388 -1.06008 -5.6911e-16)
(-0.398914 -1.11764 0)
(-0.277435 -1.08536 -6.22305e-16)
(-0.0897704 -0.930688 1.30415e-15)
(0.172239 -0.546771 -2.08873e-15)
(0.529573 0.0537964 2.15196e-15)
(0.621294 0.440608 0)
(0.49536 0.705254 2.35494e-15)
(0.348625 0.965319 -1.70456e-15)
(0.317933 1.16829 1.24264e-15)
(0.307452 1.30972 2.42853e-18)
(0.299035 1.38653 -9.16397e-16)
(0.272094 1.4052 0)
(0.314766 1.28197 0)
(0.215387 0.670124 0)
(-0.0927769 -0.189004 0)
(-0.220952 -0.230786 0)
(-0.326576 -0.270012 3.22587e-16)
(-0.419598 -0.324511 -2.5972e-16)
(-0.502213 -0.393885 0)
(-0.576988 -0.479497 3.70119e-16)
(-0.645303 -0.582051 -6.43258e-16)
(-0.706715 -0.701353 2.83265e-16)
(-0.75887 -0.833919 0)
(-0.796703 -0.971309 0)
(-0.812051 -1.09696 0)
(-0.790977 -1.17698 4.09371e-16)
(-0.712256 -1.15487 -4.17278e-16)
(-0.550064 -0.993221 -4.60058e-16)
(-0.247077 -0.516259 -5.8481e-16)
(0.263792 0.349646 2.24975e-15)
(0.367345 0.690627 2.33084e-15)
(0.13321 0.802584 -1.49366e-15)
(-0.0212216 1.00921 0)
(0.0137178 1.18518 0)
(0.0619123 1.30912 8.54068e-16)
(0.0860996 1.3712 -7.97673e-16)
(0.0921275 1.35665 0)
(0.143107 1.12388 8.89688e-16)
(0.0381609 0.239892 -3.95859e-15)
(-0.110828 -0.0807869 0)
(-0.270677 -0.118856 0)
(-0.402494 -0.165685 -3.42847e-16)
(-0.520862 -0.226481 2.57383e-16)
(-0.628514 -0.301694 4.10378e-16)
(-0.729801 -0.393429 -6.79253e-16)
(-0.828153 -0.503318 5.7555e-16)
(-0.924875 -0.63235 -2.47938e-16)
(-1.0187 -0.778069 0)
(-1.10509 -0.932678 3.83191e-16)
(-1.17544 -1.08001 -3.46863e-16)
(-1.2135 -1.18667 -3.20808e-16)
(-1.19195 -1.18616 1.01293e-18)
(-1.07348 -1.05688 6.47734e-16)
(-0.795058 -0.621697 -1.12679e-15)
(-0.31317 0.150405 1.21235e-15)
(-0.0278345 0.676034 0)
(-0.252781 0.783096 0)
(-0.388513 0.941898 0)
(-0.275266 1.1122 8.33355e-16)
(-0.163579 1.23518 -7.6842e-16)
(-0.110639 1.29576 0)
(-0.0835972 1.23429 0)
(-0.0650803 0.813157 -9.37941e-16)
(-0.229003 -0.404376 -2.5739e-18)
(-0.126926 0.0380995 0)
(-0.310022 0.0124997 0)
(-0.463731 -0.0406039 3.19279e-16)
(-0.603769 -0.106313 -2.54724e-16)
(-0.735151 -0.185368 -4.1127e-16)
(-0.863123 -0.279621 6.57073e-16)
(-0.991417 -0.39186 -5.42235e-16)
(-1.12326 -0.524281 2.28654e-16)
(-1.25887 -0.676027 0)
(-1.3946 -0.840871 -3.39691e-16)
(-1.52212 -1.00429 3.00741e-16)
(-1.62507 -1.13877 2.71035e-16)
(-1.67396 -1.18313 -2.5432e-16)
(-1.6261 -1.11184 -2.51264e-16)
(-1.41832 -0.773813 -2.7011e-16)
(-0.98772 -0.108361 7.10141e-16)
(-0.574825 0.56724 1.14374e-15)
(-0.578039 0.726647 -8.98841e-16)
(-0.680322 0.840318 0)
(-0.532997 0.981588 -7.70595e-16)
(-0.353652 1.10962 1.48035e-15)
(-0.267723 1.17068 -7.33836e-16)
(-0.23104 1.05417 0)
(-0.267197 0.407043 1.11326e-15)
(-0.337263 -0.760379 -3.60711e-15)
(-0.122651 0.177845 2.04439e-16)
(-0.310884 0.167534 1.53037e-16)
(-0.486428 0.108559 -2.53947e-16)
(-0.651856 0.0370067 4.43385e-16)
(-0.806945 -0.0449965 -2.35727e-19)
(-0.957985 -0.140172 -3.30552e-16)
(-1.11276 -0.251309 2.71322e-16)
(-1.27549 -0.381429 2.22918e-16)
(-1.4477 -0.531795 -3.75093e-16)
(-1.62683 -0.698842 3.19461e-16)
(-1.80579 -0.871347 -2.77413e-16)
(-1.96973 -1.02665 0)
(-2.09092 -1.12444 -2.22731e-16)
(-2.12651 -1.10592 4.24705e-16)
(-2.01205 -0.916296 -2.15968e-16)
(-1.66291 -0.410392 4.98632e-16)
(-1.12389 0.29852 -7.39891e-16)
(-0.858631 0.626642 0)
(-0.872554 0.701097 0)
(-0.740974 0.808214 7.55505e-16)
(-0.498572 0.938677 1.71598e-18)
(-0.365443 0.998674 -7.7143e-16)
(-0.328792 0.804755 0)
(-0.38061 0.0250676 0)
(-0.223503 -0.703038 -2.50701e-15)
(-0.103311 0.346794 0)
(-0.276085 0.333075 0)
(-0.456078 0.275727 0)
(-0.635837 0.203089 0)
(-0.814387 0.117851 0)
(-0.990277 0.0222078 0)
(-1.16694 -0.0864651 0)
(-1.35226 -0.211384 0)
(-1.54977 -0.355379 3.83208e-16)
(-1.75907 -0.517494 -3.21091e-16)
(-1.97461 -0.692726 0)
(-2.18537 -0.864554 0)
(-2.36951 -1.00594 0)
(-2.48903 -1.06759 0)
(-2.48531 -1.01147 0)
(-2.28219 -0.730398 0)
(-1.77886 -0.18221 -4.93279e-16)
(-1.17349 0.41367 1.3953e-15)
(-0.961275 0.56634 -1.54163e-15)
(-0.861013 0.598473 7.86429e-16)
(-0.600183 0.698048 8.30619e-16)
(-0.392424 0.756576 -8.8455e-16)
(-0.353966 0.495386 -1.07542e-15)
(-0.415264 -0.348141 2.94828e-15)
(0.0024587 -0.624885 -2.35857e-15)
(-0.0744079 0.481095 0)
(-0.218195 0.485627 0)
(-0.382393 0.438166 1.86347e-16)
(-0.555718 0.374718 -1.66518e-16)
(-0.737147 0.29671 0)
(-0.925751 0.203681 2.75751e-16)
(-1.12011 0.0976151 -5.11717e-16)
(-1.32011 -0.0216163 2.37071e-16)
(-1.529 -0.157747 4.13591e-16)
(-1.74886 -0.312954 -3.47654e-16)
(-1.97638 -0.483569 -2.89764e-16)
(-2.2069 -0.664168 4.91485e-16)
(-2.42769 -0.836492 -2.14505e-16)
(-2.61375 -0.971944 -1.9161e-16)
(-2.68409 -1.01462 -1.7962e-16)
(-2.64971 -0.943881 3.5519e-16)
(-2.40742 -0.670583 0)
(-1.80936 -0.177415 5.01176e-16)
(-1.10294 0.336209 -7.03464e-16)
(-0.806339 0.429057 0)
(-0.584975 0.41623 1.04525e-15)
(-0.345398 0.416456 -2.37089e-15)
(-0.24829 0.141327 1.64725e-15)
(-0.124278 -0.651644 5.28681e-15)
(0.157836 -0.521548 -4.5516e-15)
(-0.0404623 0.562935 1.17419e-16)
(-0.150724 0.608948 9.80283e-17)
(-0.28222 0.575303 -1.76207e-16)
(-0.427842 0.528096 3.19942e-16)
(-0.588017 0.464845 -5.81819e-16)
(-0.761341 0.384797 2.67622e-16)
(-0.946524 0.286557 0)
(-1.14199 0.17157 4.61638e-16)
(-1.34556 0.0428613 -4.33919e-16)
(-1.55427 -0.102637 -3.92435e-16)
(-1.76528 -0.2671 3.38616e-16)
(-1.97359 -0.447136 0)
(-2.18848 -0.634594 2.38213e-16)
(-2.40584 -0.813652 -2.08846e-16)
(-2.58969 -0.953623 3.75915e-16)
(-2.67461 -0.989968 8.92522e-19)
(-2.65628 -0.95369 -7.13736e-16)
(-2.39099 -0.805867 3.89993e-16)
(-1.80795 -0.473311 -5.0186e-16)
(-1.02571 -0.0385531 -1.98665e-18)
(-0.442395 0.179169 2.59336e-15)
(-0.173405 0.128115 -2.36888e-15)
(0.0159511 -0.0957143 0)
(0.168148 -0.470021 0)
(0.243063 -0.351631 0)
(-0.0110013 0.606069 0)
(-0.079413 0.690011 0)
(-0.16881 0.676625 0)
(-0.275216 0.646582 0)
(-0.396916 0.602413 0)
(-0.532182 0.540205 0)
(-0.678963 0.458407 -2.58071e-16)
(-0.833829 0.358912 2.42555e-16)
(-0.991771 0.240576 4.60808e-16)
(-1.14603 0.102537 -4.43322e-16)
(-1.29234 -0.0598791 -4.26481e-16)
(-1.43511 -0.239818 3.68243e-16)
(-1.58091 -0.427629 0)
(-1.75381 -0.614032 -2.59817e-16)
(-1.93663 -0.785096 2.28577e-16)
(-2.10048 -0.910942 0)
(-2.21643 -0.97823 0)
(-2.24756 -0.97796 3.93648e-16)
(-2.16761 -0.966055 -8.33215e-16)
(-1.73838 -0.922303 4.97222e-16)
(-1.13106 -0.726555 7.42124e-16)
(-0.49084 -0.537702 -2.96563e-15)
(-0.142157 -0.484507 2.31838e-15)
(0.163371 -0.367176 0)
(0.217701 -0.350281 -3.5634e-15)
(0.0193442 0.60944 0)
(-0.0078583 0.745141 0)
(-0.0536116 0.737744 1.82426e-16)
(-0.116178 0.72138 -1.72475e-16)
(-0.193075 0.691658 0)
(-0.281864 0.643476 3.04174e-16)
(-0.375584 0.57385 -5.79281e-16)
(-0.467864 0.481803 2.79154e-16)
(-0.548934 0.365675 5.46173e-16)
(-0.607133 0.223342 -5.51218e-16)
(-0.640495 0.0590245 0)
(-0.674614 -0.11706 5.96442e-16)
(-0.731111 -0.297514 -4.67792e-16)
(-0.875441 -0.481674 -3.87743e-16)
(-1.06036 -0.655072 -3.31705e-16)
(-1.21345 -0.7953 5.86304e-16)
(-1.32042 -0.884409 0)
(-1.39939 -0.94042 5.15505e-16)
(-1.44974 -0.983923 -5.00346e-16)
(-1.46615 -1.02023 0)
(-1.44208 -1.05001 0)
(-1.07159 -1.06168 0)
(-0.746988 -0.93948 0)
(-0.600874 -0.835046 2.08381e-15)
(-0.0904185 -1.02898 -1.23254e-14)
(0.0519629 0.566814 0)
(0.0642271 0.745891 0)
(0.0597664 0.762977 0)
(0.0362049 0.766875 0)
(0.00449037 0.753749 0)
(-0.0345887 0.715266 0)
(-0.0755216 0.654894 0)
(-0.109205 0.569991 0)
(-0.122014 0.453954 0)
(-0.0857725 0.296229 0)
(0.035653 0.0823124 0)
(0.174292 -0.171954 0)
(0.189182 -0.380894 0)
(-0.0345558 -0.512225 0)
(-0.301412 -0.643837 0)
(-0.473229 -0.775493 0)
(-0.553467 -0.878744 0)
(-0.581522 -0.935704 0)
(-0.604982 -0.953323 0)
(-0.631833 -0.951765 0)
(-0.678127 -0.970898 0)
(-0.75251 -0.98585 0)
(-0.789652 -0.91346 0)
(-0.87401 -0.677107 0)
(-0.85632 -0.148294 0)
(0.071177 0.476352 0)
(0.131693 0.71411 0)
(0.162055 0.753479 0)
(0.171209 0.756136 0)
(0.176049 0.742407 0)
(0.178849 0.720712 0)
(0.18471 0.674168 0)
(0.19803 0.597721 0)
(0.22727 0.484909 0)
(0.289951 0.323881 0)
(0.420149 0.0924675 0)
(0.62645 -0.292367 0)
(0.708789 -0.487713 0)
(0.519751 -0.550279 0)
(0.294568 -0.649102 0)
(0.16108 -0.753751 0)
(0.0831245 -0.856024 0)
(0.0588232 -0.942219 0)
(0.0521959 -0.984898 0)
(0.0607162 -0.95527 0)
(0.0917264 -0.891184 0)
(0.147597 -0.818168 0)
(0.200849 -0.825874 0)
(0.178632 -0.938592 0)
(0.122067 -0.93129 0)
(0.0810895 0.344594 0)
(0.188631 0.633473 0)
(0.253139 0.716984 0)
(0.285753 0.727918 0)
(0.314542 0.714817 0)
(0.348007 0.684399 0)
(0.388583 0.634944 0)
(0.440036 0.561277 0)
(0.507054 0.456129 0)
(0.593174 0.312608 0)
(0.704929 0.128495 0)
(0.840128 -0.103202 0)
(0.892653 -0.313026 0)
(0.883852 -0.514263 0)
(0.807196 -0.688402 0)
(0.710066 -0.814559 0)
(0.616196 -0.906059 0)
(0.555272 -0.98108 0)
(0.52113 -1.02367 0)
(0.492736 -1.00447 0)
(0.473758 -0.963587 0)
(0.481637 -0.86957 0)
(0.530187 -0.743358 0)
(0.588551 -0.657794 0)
(0.613601 -0.571044 0)
(0.0696624 0.201675 0)
(0.221475 0.496838 0)
(0.321408 0.652207 0)
(0.376088 0.682474 0)
(0.420233 0.663018 0)
(0.470661 0.622218 0)
(0.532249 0.562693 0)
(0.606518 0.480759 0)
(0.695518 0.370106 0)
(0.799031 0.225595 0)
(0.908308 0.0439857 0)
(1.00411 -0.174852 0)
(1.0716 -0.403666 0)
(1.10081 -0.608938 0)
(1.09485 -0.768651 0)
(1.04947 -0.88364 0)
(0.991948 -0.960115 0)
(0.950256 -1.00727 0)
(0.919937 -1.01811 0)
(0.888489 -0.994114 0)
(0.861351 -0.946601 0)
(0.848276 -0.882329 0)
(0.855653 -0.806028 0)
(0.890593 -0.717645 0)
(0.951132 -0.599725 0)
(0.0456187 0.0972802 0)
(0.214616 0.301652 0)
(0.354137 0.545233 0)
(0.432534 0.622887 0)
(0.488426 0.605708 0)
(0.547834 0.553025 0)
(0.617309 0.480673 0)
(0.698631 0.387189 0)
(0.791673 0.268285 0)
(0.892245 0.119558 0)
(0.993992 -0.0607661 0)
(1.08206 -0.267249 0)
(1.15179 -0.479829 0)
(1.19883 -0.6715 0)
(1.22161 -0.826214 0)
(1.22129 -0.937307 0)
(1.21219 -0.996538 0)
(1.19607 -1.01693 0)
(1.18167 -1.00706 0)
(1.16208 -0.978544 0)
(1.14934 -0.931498 0)
(1.15557 -0.868722 0)
(1.18058 -0.796367 0)
(1.22207 -0.718516 0)
(1.27591 -0.629138 0)
(0.0344239 0.0611554 0)
(0.161424 0.0937626 0)
(0.33263 0.390574 0)
(0.442044 0.53966 0)
(0.515415 0.543789 0)
(0.580343 0.487606 0)
(0.649946 0.404643 0)
(0.727025 0.301645 0)
(0.810878 0.176638 0)
(0.899242 0.0266256 0)
(0.98402 -0.148644 0)
(1.06042 -0.338907 0)
(1.13027 -0.527876 0)
(1.18874 -0.695839 0)
(1.23542 -0.830899 0)
(1.26688 -0.926144 0)
(1.27207 -0.980744 0)
(1.26658 -1.0048 0)
(1.26944 -1.00668 0)
(1.27895 -0.986586 0)
(1.29771 -0.944736 0)
(1.32959 -0.885991 0)
(1.37498 -0.82051 0)
(1.43071 -0.755935 0)
(1.49361 -0.686072 0)
(0.00549917 -0.0135302 0)
(0.0590041 -0.0605731 0)
(0.254796 0.208005 0)
(0.397753 0.425859 0)
(0.493244 0.47098 0)
(0.568282 0.42714 0)
(0.636826 0.343899 0)
(0.704919 0.237884 0)
(0.773252 0.111083 0)
(0.838483 -0.0378916 0)
(0.898658 -0.2071 0)
(0.959879 -0.388578 0)
(1.01763 -0.566851 0)
(1.07597 -0.727463 0)
(1.13029 -0.860234 0)
(1.17411 -0.959395 0)
(1.20926 -1.02292 0)
(1.23739 -1.05231 0)
(1.25309 -1.05288 0)
(1.28084 -1.02871 0)
(1.32474 -0.983113 0)
(1.37993 -0.924301 0)
(1.44403 -0.863421 0)
(1.51473 -0.805218 0)
(1.58894 -0.744785 0)
(-0.0172583 -0.0508487 0)
(-0.0173399 -0.0997406 0)
(0.138907 0.0254154 0)
(0.30956 0.289273 0)
(0.42383 0.383089 0)
(0.506363 0.365495 0)
(0.575095 0.2967 0)
(0.635714 0.199688 0)
(0.687153 0.0792175 0)
(0.728454 -0.0645311 0)
(0.759216 -0.231494 0)
(0.784357 -0.41615 0)
(0.813879 -0.601243 0)
(0.852974 -0.772919 0)
(0.90322 -0.916925 0)
(0.956949 -1.0244 0)
(1.00725 -1.09181 0)
(1.05793 -1.11943 0)
(1.11604 -1.11431 0)
(1.18027 -1.08519 0)
(1.24153 -1.03919 0)
(1.31481 -0.984504 0)
(1.39654 -0.929226 0)
(1.48432 -0.876447 0)
(1.57558 -0.823994 0)
(-0.0149804 -0.0436617 0)
(-0.00815987 -0.124104 0)
(0.0415811 -0.0904307 0)
(0.20272 0.153654 0)
(0.318678 0.285107 0)
(0.39715 0.295049 0)
(0.457728 0.247964 0)
(0.50785 0.171203 0)
(0.543833 0.0679819 0)
(0.557127 -0.0638686 0)
(0.549476 -0.23076 0)
(0.517133 -0.426775 0)
(0.496451 -0.632793 0)
(0.525029 -0.832996 0)
(0.594281 -0.999503 0)
(0.678341 -1.11606 0)
(0.761388 -1.18307 0)
(0.840983 -1.20778 0)
(0.919043 -1.20002 0)
(1.00072 -1.16947 0)
(1.08919 -1.12442 0)
(1.18684 -1.07277 0)
(1.29358 -1.02129 0)
(1.40708 -0.972943 0)
(1.52857 -0.932936 0)
(-0.00366948 -0.0173703 0)
(0.0416145 -0.0826166 0)
(0.0476805 -0.0462012 0)
(0.121397 0.0888724 0)
(0.211101 0.21219 0)
(0.267324 0.234087 0)
(0.301184 0.201921 0)
(0.324619 0.146606 0)
(0.334143 0.0648324 0)
(0.316245 -0.0513003 0)
(0.253241 -0.221019 0)
(0.123207 -0.432738 0)
(0.124028 -0.672224 0)
(0.228887 -0.923663 0)
(0.365586 -1.11584 0)
(0.4964 -1.23456 0)
(0.611966 -1.29471 0)
(0.71526 -1.31334 0)
(0.811987 -1.30382 0)
(0.90845 -1.27452 0)
(1.01331 -1.2316 0)
(1.13213 -1.18326 0)
(1.26391 -1.13778 0)
(1.40531 -1.10192 0)
(1.5621 -1.08656 0)
(0.023655 -0.0524587 0)
(0.113334 -0.128843 0)
(0.116036 0.0123458 0)
(0.0969445 0.125487 0)
(0.13679 0.221171 0)
(0.159569 0.238988 0)
(0.151407 0.221024 0)
(0.12819 0.179281 0)
(0.0924157 0.111587 0)
(0.0257922 0.00491286 0)
(-0.123344 -0.15328 0)
(-0.225113 -0.381114 0)
(-0.0216401 -0.724245 0)
(0.154702 -1.0442 0)
(0.321434 -1.25303 0)
(0.469537 -1.36688 0)
(0.601656 -1.41694 0)
(0.72271 -1.42745 0)
(0.838391 -1.41306 0)
(0.956269 -1.3827 0)
(1.08318 -1.34437 0)
(1.22151 -1.30703 0)
(1.37041 -1.27881 0)
(1.53268 -1.26735 0)
(1.71342 -1.28105 0)
(0.0672124 -0.206537 0)
(0.174295 -0.27273 0)
(0.178031 -0.0687517 0)
(0.127294 0.125603 0)
(0.108127 0.257321 0)
(0.095235 0.305143 0)
(0.0511266 0.302768 0)
(-0.0277605 0.275996 0)
(-0.128094 0.220303 0)
(-0.25987 0.11094 0)
(-0.314316 -0.0554813 0)
(-0.177523 -0.345751 0)
(0.00294613 -0.788123 0)
(0.166725 -1.17137 0)
(0.330251 -1.4003 0)
(0.488637 -1.51203 0)
(0.640895 -1.55236 0)
(0.786929 -1.55308 0)
(0.92931 -1.53277 0)
(1.07245 -1.50327 0)
(1.21988 -1.47404 0)
(1.37317 -1.45287 0)
(1.53489 -1.44492 0)
(1.70621 -1.45359 0)
(1.88502 -1.47917 0)
(0.0934797 -0.387036 0)
(0.212241 -0.396114 0)
(0.184799 -0.167895 0)
(0.138504 0.0605203 0)
(0.105264 0.223448 0)
(0.0712875 0.334367 0)
(0.0100844 0.403981 0)
(-0.190191 0.439285 0)
(-0.374732 0.398748 0)
(-0.468462 0.255448 0)
(-0.386479 0.0132432 0)
(-0.179564 -0.379859 0)
(-0.0104281 -0.892246 0)
(0.15895 -1.32262 0)
(0.333488 -1.57013 0)
(0.509674 -1.68112 0)
(0.683516 -1.71316 0)
(0.852239 -1.70535 0)
(1.01619 -1.68071 0)
(1.17718 -1.65326 0)
(1.33721 -1.63156 0)
(1.49841 -1.61975 0)
(1.66095 -1.61869 0)
(1.82342 -1.62705 0)
(1.97926 -1.64159 0)
(0.100021 -0.502609 0)
(0.203288 -0.472759 0)
(0.227867 -0.309019 0)
(0.195179 -0.0820644 0)
(0.146754 0.233628 0)
(0.0349216 0.484326 0)
(-0.202764 0.638279 0)
(-0.441091 0.697089 0)
(-0.584085 0.628466 0)
(-0.56869 0.403007 0)
(-0.40725 0.0162822 0)
(-0.209941 -0.492375 0)
(-0.00173735 -1.03366 0)
(0.18075 -1.48958 0)
(0.36741 -1.75228 0)
(0.554326 -1.86531 0)
(0.737433 -1.89285 0)
(0.91409 -1.87931 0)
(1.08399 -1.85062 0)
(1.24798 -1.82104 0)
(1.40722 -1.7971 0)
(1.56185 -1.7804 0)
(1.71099 -1.76998 0)
(1.85063 -1.76415 0)
(1.97693 -1.76237 0)
(0.0982809 -0.485327 0)
(0.164524 -0.425654 0)
(0.271507 -0.231354 0)
(0.0822448 0.178579 0)
(-0.108616 0.517445 0)
(-0.317304 0.758693 0)
(-0.541311 0.877396 0)
(-0.692156 0.877441 0)
(-0.712841 0.678361 0)
(-0.589456 0.327718 0)
(-0.364363 -0.10421 0)
(-0.146307 -0.602501 0)
(0.0626821 -1.1743 0)
(0.250998 -1.65127 0)
(0.439922 -1.93305 0)
(0.626035 -2.05087 0)
(0.805227 -2.07448 0)
(0.975526 -2.05356 0)
(1.13692 -2.01636 0)
(1.29007 -1.97725 0)
(1.43534 -1.94221 0)
(1.57259 -1.913 0)
(1.70045 -1.88997 0)
(1.81907 -1.87398 0)
(1.93006 -1.86576 0)
(0.0665534 -0.380571 0)
(0.0698658 -0.231511 0)
(-0.058399 0.129246 0)
(-0.246989 0.482926 0)
(-0.414786 0.760479 0)
(-0.564586 0.932793 0)
(-0.678527 0.994275 0)
(-0.708445 0.844041 0)
(-0.634268 0.566821 0)
(-0.400198 0.195343 0)
(-0.194593 -0.21285 0)
(0.000182194 -0.717498 0)
(0.185404 -1.30816 0)
(0.364262 -1.80429 0)
(0.543344 -2.10664 0)
(0.718246 -2.2275 0)
(0.883336 -2.24388 0)
(1.03722 -2.2115 0)
(1.1807 -2.16143 0)
(1.31503 -2.10946 0)
(1.44124 -2.06289 0)
(1.56018 -2.02487 0)
(1.6738 -1.99702 0)
(1.78387 -1.97989 0)
(1.89259 -1.97329 0)
(0.0294079 -0.238973 0)
(-0.0910132 0.011269 0)
(-0.265949 0.37519 0)
(-0.414774 0.669905 0)
(-0.524091 0.881617 0)
(-0.59664 0.981878 0)
(-0.632546 0.93696 0)
(-0.577825 0.723932 0)
(-0.345428 0.402258 0)
(-0.0452667 0.00869544 0)
(0.0573288 -0.353792 0)
(0.205879 -0.838014 0)
(0.361379 -1.41974 0)
(0.516449 -1.93886 0)
(0.674551 -2.26158 0)
(0.82798 -2.38393 0)
(0.970479 -2.39188 0)
(1.10152 -2.34753 0)
(1.22306 -2.2854 0)
(1.33752 -2.22373 0)
(1.44728 -2.17119 0)
(1.55468 -2.13116 0)
(1.66131 -2.10423 0)
(1.76878 -2.08959 0)
(1.87754 -2.0852 0)
(0.00928943 -0.132994 0)
(-0.149584 0.217881 0)
(-0.299915 0.527458 0)
(-0.396811 0.767049 0)
(-0.44723 0.912064 0)
(-0.465078 0.955952 0)
(-0.433771 0.835065 0)
(-0.267116 0.55058 0)
(0.109708 0.111342 0)
(0.23886 -0.212032 0)
(0.311905 -0.522801 0)
(0.441318 -0.967793 0)
(0.572851 -1.52173 0)
(0.699441 -2.04924 0)
(0.828059 -2.38943 0)
(0.951834 -2.51228 0)
(1.06611 -2.51356 0)
(1.17176 -2.46075 0)
(1.2715 -2.39131 0)
(1.36855 -2.32544 0)
(1.46561 -2.27209 0)
(1.56415 -2.23357 0)
(1.66502 -2.20901 0)
(1.76778 -2.19611 0)
(1.87181 -2.19268 0)
(0.0136967 -0.142991 0)
(-0.128731 0.340703 0)
(-0.221268 0.609372 0)
(-0.261178 0.804792 0)
(-0.25758 0.903902 0)
(-0.230011 0.899623 0)
(-0.156366 0.703995 0)
(0.0893904 0.306929 0)
(0.370796 -0.16991 0)
(0.450115 -0.461829 0)
(0.54709 -0.746456 0)
(0.687937 -1.12674 0)
(0.801598 -1.62204 0)
(0.899331 -2.13698 0)
(0.994723 -2.48779 0)
(1.08481 -2.60857 0)
(1.16882 -2.60673 0)
(1.24919 -2.55083 0)
(1.32856 -2.47959 0)
(1.4097 -2.41422 0)
(1.49442 -2.3632 0)
(1.58316 -2.32756 0)
(1.67513 -2.30529 0)
(1.76963 -2.29395 0)
(1.86578 -2.29128 0)
(0.0566181 -0.309223 0)
(-0.0484129 0.365356 0)
(-0.0888857 0.62925 0)
(-0.0753973 0.799146 0)
(-0.0214362 0.865475 0)
(0.0462824 0.806931 0)
(0.121489 0.546018 0)
(0.403071 0.0341852 0)
(0.551897 -0.398991 0)
(0.628522 -0.700076 0)
(0.776635 -0.975704 0)
(0.926783 -1.29092 0)
(1.02533 -1.71484 0)
(1.09841 -2.20313 0)
(1.16271 -2.55423 0)
(1.22008 -2.67211 0)
(1.27473 -2.67204 0)
(1.33079 -2.61818 0)
(1.3904 -2.54975 0)
(1.45535 -2.48837 0)
(1.52646 -2.44173 0)
(1.60306 -2.4099 0)
(1.6841 -2.39054 0)
(1.76826 -2.38119 0)
(1.85476 -2.38033 0)
(0.113854 -0.615559 0)
(0.0674662 0.268372 0)
(0.0610992 0.580569 0)
(0.11873 0.736602 0)
(0.212799 0.779251 0)
(0.302344 0.679528 0)
(0.405802 0.368884 0)
(0.604172 -0.131638 0)
(0.709648 -0.566477 0)
(0.824418 -0.883736 0)
(0.996499 -1.16462 0)
(1.14154 -1.43537 0)
(1.2258 -1.79577 0)
(1.28013 -2.25137 0)
(1.31954 -2.59526 0)
(1.34889 -2.70898 0)
(1.37677 -2.71139 0)
(1.40958 -2.66331 0)
(1.4494 -2.60111 0)
(1.49754 -2.54645 0)
(1.55402 -2.50611 0)
(1.61768 -2.4795 0)
(1.68689 -2.46418 0)
(1.7606 -2.45827 0)
(1.83803 -2.46043 0)
(0.137158 -0.867586 0)
(0.187073 0.0554073 0)
(0.214452 0.461943 0)
(0.29465 0.61931 0)
(0.412971 0.64033 0)
(0.513882 0.513624 0)
(0.648197 0.182944 0)
(0.793994 -0.281046 0)
(0.88968 -0.678407 0)
(1.02226 -1.02313 0)
(1.19234 -1.32262 0)
(1.3193 -1.55821 0)
(1.38834 -1.86541 0)
(1.4313 -2.28848 0)
(1.45361 -2.61863 0)
(1.46099 -2.71904 0)
(1.46577 -2.72756 0)
(1.47677 -2.68706 0)
(1.49746 -2.63379 0)
(1.52943 -2.58856 0)
(1.57213 -2.55683 0)
(1.62374 -2.53725 0)
(1.68252 -2.52762 0)
(1.74705 -2.52636 0)
(1.81638 -2.53279 0)
(0.0927556 -0.807667 0)
(0.276545 -0.208465 0)
(0.354215 0.276494 0)
(0.439573 0.452044 0)
(0.56426 0.454845 0)
(0.677828 0.311503 0)
(0.814964 -0.0197251 0)
(0.940925 -0.434809 0)
(1.04377 -0.807693 0)
(1.18718 -1.17319 0)
(1.34063 -1.46651 0)
(1.4411 -1.65957 0)
(1.50014 -1.92488 0)
(1.54271 -2.32008 0)
(1.55497 -2.62856 0)
(1.54596 -2.71775 0)
(1.53202 -2.72571 0)
(1.52404 -2.69246 0)
(1.52857 -2.65013 0)
(1.54753 -2.61723 0)
(1.5794 -2.59632 0)
(1.62161 -2.58539 0)
(1.67192 -2.58256 0)
(1.72878 -2.58697 0)
(1.79097 -2.59817 0)
(0.0546191 -0.595396 0)
(0.25587 -0.551745 0)
(0.43016 0.0206859 0)
(0.539767 0.26922 0)
(0.662744 0.27167 0)
(0.782802 0.11439 0)
(0.910676 -0.209059 0)
(1.02072 -0.585724 0)
(1.13006 -0.964867 0)
(1.27693 -1.33858 0)
(1.40683 -1.59159 0)
(1.48572 -1.73695 0)
(1.55374 -1.98135 0)
(1.61027 -2.35338 0)
(1.61641 -2.62679 0)
(1.59565 -2.7057 0)
(1.56726 -2.7085 0)
(1.54604 -2.68224 0)
(1.54055 -2.65458 0)
(1.55174 -2.63657 0)
(1.57671 -2.62782 0)
(1.61223 -2.62621 0)
(1.6559 -2.63064 0)
(1.7061 -2.64082 0)
(1.76162 -2.65697 0)
(0.0566928 -0.286976 0)
(-0.00706042 -0.377094 0)
(0.332202 -0.208636 0)
(0.532937 0.0999934 0)
(0.671717 0.133735 0)
(0.790803 -0.0285625 0)
(0.882414 -0.356489 0)
(0.96912 -0.75306 0)
(1.10212 -1.16164 0)
(1.25636 -1.50565 0)
(1.36912 -1.68991 0)
(1.4532 -1.80567 0)
(1.5595 -2.05395 0)
(1.62756 -2.3964 0)
(1.63476 -2.61881 0)
(1.60674 -2.67571 0)
(1.56951 -2.67782 0)
(1.54331 -2.66387 0)
(1.53525 -2.65378 0)
(1.54387 -2.65128 0)
(1.56522 -2.65439 0)
(1.59604 -2.66162 0)
(1.63429 -2.67284 0)
(1.67858 -2.68862 0)
(1.72786 -2.70945 0)
(0.0866602 -0.225155 0)
(-0.242926 -0.191666 0)
(-0.0842565 -0.24779 0)
(0.293538 -0.0418185 0)
(0.513458 0.0220985 0)
(0.610047 -0.132072 0)
(0.642756 -0.523917 0)
(0.76423 -0.985114 0)
(0.965037 -1.39268 0)
(1.14122 -1.66071 0)
(1.26313 -1.78093 0)
(1.39293 -1.90275 0)
(1.54899 -2.15868 0)
(1.62289 -2.44532 0)
(1.62101 -2.59942 0)
(1.58372 -2.63997 0)
(1.54419 -2.64461 0)
(1.52131 -2.64627 0)
(1.51657 -2.65357 0)
(1.52604 -2.66488 0)
(1.54572 -2.67802 0)
(1.57314 -2.69277 0)
(1.60685 -2.71003 0)
(1.64595 -2.73081 0)
(1.68966 -2.756 0)
(0.0873341 -0.279181 0)
(-0.341224 -0.160926 0)
(-0.578494 -0.176677 0)
(-0.185607 -0.153367 0)
(0.101755 -0.11302 0)
(0.0853389 -0.320927 0)