/*--------------------------------*- C++ -*----------------------------------*\
  =========                 |
  \\      /  F ield         | OpenFOAM: The Open Source CFD Toolbox
   \\    /   O peration     | Website:  https://openfoam.org
    \\  /    A nd           | Version:  13
     \\/     M anipulation  |
\*---------------------------------------------------------------------------*/
FoamFile
{
    format      ascii;
    class       volScalarField;
    location    "5";
    object      p;
}
// * * * * * * * * * * * * * * * * * * * * * * * * * * * * * * * * * * * * * //

dimensions      [0 2 -2 0 0 0 0];

internalField   nonuniform List<scalar> 
6440
(
122.522
122.522
122.522
122.521
122.52
122.519
122.518
122.517
122.515
122.514
122.513
122.512
122.512
122.512
122.512
122.513
122.514
122.515
122.516
122.517
122.518
122.517
122.517
122.515
122.514
122.523
122.522
122.522
122.521
122.52
122.519
122.517
122.516
122.515
122.514
122.513
122.512
122.512
122.512
122.512
122.513
122.514
122.515
122.516
122.517
122.517
122.516
122.515
122.513
122.512
122.522
122.521
122.52
122.519
122.518
122.517
122.516
122.514
122.513
122.512
122.511
122.51
122.51
122.51
122.511
122.511
122.512
122.513
122.514
122.514
122.514
122.513
122.512
122.51
122.509
122.519
122.518
122.518
122.516
122.515
122.514
122.512
122.511
122.509
122.508
122.507
122.507
122.507
122.507
122.508
122.508
122.509
122.51
122.51
122.51
122.51
122.509
122.507
122.505
122.504
122.515
122.514
122.513
122.512
122.511
122.509
122.507
122.506
122.504
122.503
122.503
122.502
122.502
122.503
122.504
122.504
122.505
122.505
122.506
122.506
122.505
122.504
122.502
122.5
122.499
122.509
122.508
122.507
122.506
122.504
122.502
122.501
122.499
122.498
122.497
122.496
122.496
122.497
122.497
122.498
122.499
122.499
122.5
122.5
122.5
122.499
122.498
122.496
122.494
122.494
122.501
122.5
122.499
122.498
122.496
122.494
122.493
122.491
122.49
122.489
122.488
122.489
122.489
122.49
122.491
122.492
122.493
122.493
122.493
122.493
122.493
122.492
122.49
122.488
122.488
122.491
122.49
122.489
122.487
122.486
122.484
122.482
122.481
122.48
122.479
122.479
122.479
122.481
122.482
122.483
122.484
122.485
122.486
122.486
122.486
122.486
122.485
122.484
122.483
122.483
122.478
122.477
122.476
122.475
122.473
122.471
122.47
122.469
122.468
122.468
122.468
122.469
122.47
122.472
122.474
122.475
122.477
122.478
122.479
122.479
122.479
122.479
122.478
122.477
122.478
122.462
122.462
122.46
122.459
122.458
122.456
122.455
122.454
122.454
122.454
122.455
122.456
122.459
122.461
122.464
122.466
122.468
122.47
122.471
122.472
122.472
122.472
122.472
122.472
122.474
122.443
122.443
122.442
122.441
122.439
122.438
122.437
122.437
122.438
122.438
122.44
122.442
122.445
122.449
122.453
122.456
122.459
122.461
122.463
122.464
122.465
122.466
122.466
122.467
122.471
122.421
122.42
122.419
122.418
122.417
122.417
122.417
122.417
122.419
122.42
122.423
122.426
122.43
122.435
122.44
122.444
122.449
122.452
122.455
122.457
122.459
122.46
122.461
122.464
122.47
122.394
122.394
122.393
122.392
122.392
122.392
122.393
122.394
122.397
122.399
122.403
122.407
122.413
122.418
122.425
122.431
122.437
122.442
122.446
122.45
122.453
122.456
122.459
122.464
122.472
122.362
122.362
122.361
122.361
122.361
122.362
122.365
122.368
122.371
122.375
122.379
122.385
122.391
122.398
122.406
122.414
122.423
122.431
122.437
122.443
122.449
122.455
122.46
122.468
122.479
122.325
122.325
122.324
122.324
122.325
122.328
122.331
122.336
122.341
122.345
122.35
122.356
122.364
122.373
122.384
122.396
122.408
122.419
122.429
122.438
122.447
122.457
122.466
122.477
122.49
122.281
122.281
122.28
122.281
122.283
122.287
122.291
122.297
122.303
122.308
122.313
122.321
122.331
122.344
122.359
122.376
122.392
122.407
122.421
122.434
122.448
122.462
122.476
122.491
122.506
122.23
122.229
122.229
122.23
122.233
122.237
122.243
122.248
122.255
122.26
122.268
122.278
122.292
122.309
122.33
122.351
122.373
122.393
122.412
122.43
122.45
122.469
122.489
122.51
122.527
122.171
122.171
122.171
122.172
122.173
122.178
122.183
122.189
122.194
122.201
122.21
122.225
122.242
122.265
122.291
122.32
122.348
122.375
122.399
122.425
122.449
122.476
122.5
122.528
122.545
122.108
122.107
122.107
122.105
122.108
122.109
122.113
122.116
122.121
122.128
122.141
122.156
122.18
122.207
122.24
122.275
122.313
122.347
122.381
122.412
122.444
122.476
122.506
122.533
122.542
122.035
122.034
122.031
122.03
122.027
122.027
122.027
122.028
122.03
122.038
122.051
122.073
122.098
122.133
122.173
122.217
122.262
122.305
122.344
122.384
122.423
122.464
122.497
122.531
122.491
121.948
121.944
121.94
121.934
121.931
121.925
121.92
121.916
121.916
121.924
121.941
121.963
121.996
122.037
122.086
122.138
122.188
122.234
122.278
122.32
122.36
122.394
122.408
122.393
122.212
121.839
121.833
121.824
121.816
121.804
121.792
121.778
121.767
121.762
121.768
121.782
121.812
121.85
121.901
121.962
122.026
122.087
122.141
122.19
122.235
122.274
122.301
122.307
122.264
122.174
121.704
121.694
121.681
121.662
121.644
121.619
121.593
121.57
121.557
121.559
121.578
121.609
121.661
121.727
121.804
121.883
121.957
122.019
122.075
122.123
122.162
122.184
122.18
122.14
122.049
121.538
121.524
121.501
121.475
121.438
121.396
121.35
121.308
121.282
121.279
121.296
121.342
121.409
121.497
121.599
121.7
121.79
121.865
121.929
121.983
122.023
122.042
122.037
121.99
121.904
121.341
121.32
121.286
121.239
121.181
121.109
121.03
120.958
120.912
120.899
120.923
120.979
121.076
121.199
121.335
121.468
121.581
121.674
121.75
121.813
121.857
121.879
121.87
121.833
121.751
121.109
121.079
121.028
120.957
120.859
120.743
120.613
120.493
120.415
120.389
120.414
120.502
120.638
120.813
121.001
121.177
121.324
121.441
121.536
121.612
121.664
121.689
121.687
121.648
121.58
120.847
120.804
120.728
120.615
120.468
120.283
120.076
119.882
119.753
119.708
119.749
119.87
120.072
120.323
120.585
120.821
121.013
121.164
121.285
121.379
121.443
121.477
121.477
121.45
121.384
120.561
120.499
120.389
120.224
119.999
119.719
119.398
119.098
118.9
118.83
118.883
119.066
119.357
119.716
120.079
120.397
120.649
120.845
121
121.116
121.196
121.24
121.252
121.224
121.171
120.266
120.18
120.026
119.788
119.463
119.054
118.584
118.146
117.857
117.753
117.835
118.09
118.501
118.999
119.493
119.912
120.238
120.49
120.684
120.828
120.926
120.984
121
120.988
120.934
119.988
119.874
119.666
119.342
118.895
118.332
117.692
117.101
116.716
116.585
116.7
117.038
117.57
118.22
118.857
119.387
119.796
120.11
120.348
120.521
120.639
120.709
120.74
120.726
120.684
119.76
119.618
119.355
118.939
118.365
117.65
116.86
116.153
115.722
115.596
115.744
116.116
116.712
117.471
118.23
118.86
119.349
119.723
120.003
120.205
120.342
120.426
120.46
120.461
120.416
119.624
119.452
119.14
118.646
117.972
117.148
116.276
115.554
115.17
115.086
115.222
115.549
116.102
116.867
117.68
118.375
118.926
119.35
119.665
119.891
120.043
120.136
120.182
120.178
120.143
119.628
119.438
119.082
118.536
117.798
116.936
116.078
115.427
115.113
115.022
115.1
115.35
115.801
116.473
117.251
117.967
118.554
119.01
119.348
119.589
119.752
119.852
119.896
119.902
119.859
119.792
119.584
119.188
118.618
117.864
117.015
116.209
115.597
115.271
115.149
115.183
115.368
115.72
116.267
116.964
117.661
118.253
118.719
119.066
119.311
119.476
119.575
119.624
119.619
119.581
120.12
119.874
119.446
118.874
118.141
117.311
116.532
115.929
115.581
115.419
115.415
115.551
115.812
116.236
116.831
117.471
118.036
118.49
118.828
119.066
119.224
119.318
119.355
119.354
119.303
120.557
120.302
119.844
119.271
118.562
117.762
116.996
116.389
116.013
115.821
115.786
115.876
116.06
116.37
116.846
117.402
117.911
118.33
118.641
118.859
119.001
119.081
119.112
119.092
119.039
121.006
120.793
120.32
119.738
119.063
118.309
117.576
116.973
116.578
116.359
116.287
116.329
116.439
116.64
116.993
117.444
117.878
118.241
118.509
118.695
118.811
118.872
118.882
118.858
118.786
121.299
121.197
120.786
120.219
119.57
118.878
118.201
117.627
117.23
116.994
116.886
116.874
116.911
117.012
117.244
117.583
117.929
118.217
118.429
118.572
118.656
118.69
118.685
118.634
118.555
121.389
121.393
121.142
120.641
120.041
119.404
118.796
118.277
117.906
117.671
117.538
117.474
117.439
117.45
117.569
117.797
118.044
118.248
118.395
118.488
118.534
118.539
118.505
118.444
118.341
121.353
121.376
121.277
120.933
120.414
119.855
119.329
118.886
118.564
118.349
118.203
118.094
117.992
117.924
117.943
118.053
118.201
118.319
118.398
118.438
118.442
118.414
118.359
118.267
118.153
121.285
121.279
121.207
121
120.64
120.2
119.785
119.439
119.182
118.998
118.852
118.701
118.546
118.411
118.334
118.336
118.384
118.418
118.428
118.414
118.377
118.316
118.229
118.124
117.985
121.204
121.162
121.062
120.9
120.664
120.393
120.13
119.913
119.744
119.605
119.455
119.276
119.075
118.883
118.716
118.621
118.574
118.529
118.475
118.41
118.331
118.237
118.129
117.994
117.843
121.104
121.037
120.916
120.734
120.547
120.406
120.33
120.28
120.227
120.144
119.995
119.777
119.547
119.301
119.053
118.869
118.745
118.634
118.525
118.415
118.301
118.178
118.04
117.893
117.719
120.995
120.924
120.808
120.608
120.397
120.319
120.397
120.527
120.606
120.586
120.419
120.172
119.905
119.61
119.307
119.067
118.885
118.723
118.57
118.424
118.279
118.13
117.975
117.802
117.62
120.899
120.834
120.733
120.52
120.305
120.26
120.423
120.677
120.854
120.859
120.666
120.388
120.105
119.788
119.473
119.208
118.988
118.789
118.605
118.431
118.261
118.093
117.916
117.737
117.536
120.769
120.713
120.616
120.401
120.189
120.209
120.471
120.766
120.938
120.911
120.703
120.446
120.176
119.876
119.567
119.293
119.051
118.83
118.625
118.432
118.245
118.06
117.875
117.677
117.473
120.586
120.508
120.372
120.132
119.963
120.073
120.42
120.733
120.869
120.82
120.64
120.419
120.189
119.904
119.6
119.325
119.076
118.846
118.631
118.427
118.229
118.034
117.836
117.637
117.422
120.328
120.202
119.998
119.756
119.63
119.816
120.211
120.537
120.676
120.638
120.505
120.35
120.127
119.848
119.571
119.312
119.069
118.841
118.623
118.414
118.211
118.01
117.81
117.6
117.387
119.996
119.829
119.584
119.352
119.291
119.524
119.94
120.269
120.423
120.415
120.341
120.197
119.985
119.747
119.505
119.268
119.04
118.819
118.605
118.396
118.192
117.99
117.784
117.579
117.359
119.628
119.464
119.239
119.054
119.045
119.281
119.681
120.003
120.162
120.19
120.13
120.002
119.828
119.63
119.419
119.206
118.994
118.785
118.578
118.374
118.171
117.969
117.767
117.556
117.342
119.336
119.201
119.05
118.943
118.971
119.157
119.481
119.774
119.928
119.962
119.917
119.814
119.674
119.507
119.324
119.133
118.939
118.742
118.544
118.346
118.148
117.949
117.745
117.542
117.324
119.241
119.121
119.04
119.029
119.091
119.185
119.382
119.606
119.733
119.763
119.726
119.645
119.527
119.385
119.225
119.054
118.876
118.692
118.504
118.314
118.121
117.925
117.727
117.518
117.309
119.384
119.282
119.245
119.301
119.361
119.332
119.386
119.518
119.597
119.608
119.571
119.496
119.394
119.269
119.126
118.972
118.807
118.636
118.458
118.276
118.088
117.897
117.697
117.498
117.284
119.629
119.568
119.564
119.639
119.655
119.515
119.446
119.488
119.512
119.494
119.444
119.371
119.274
119.159
119.029
118.887
118.735
118.574
118.405
118.229
118.047
117.859
117.666
117.46
117.256
119.813
119.79
119.817
119.874
119.828
119.64
119.509
119.487
119.458
119.409
119.345
119.264
119.168
119.058
118.935
118.802
118.658
118.505
118.344
118.175
117.998
117.813
117.618
117.423
117.214
119.887
119.887
119.921
119.937
119.861
119.69
119.556
119.49
119.421
119.346
119.264
119.176
119.076
118.966
118.846
118.717
118.579
118.432
118.276
118.112
117.94
117.758
117.57
117.369
117.171
119.883
119.894
119.915
119.904
119.839
119.712
119.586
119.487
119.392
119.298
119.204
119.103
118.998
118.884
118.763
118.635
118.499
118.356
118.205
118.045
117.877
117.699
117.511
117.322
117.123
119.841
119.854
119.866
119.861
119.822
119.727
119.6
119.481
119.371
119.264
119.157
119.048
118.934
118.815
118.69
118.56
118.424
118.283
118.135
117.979
117.814
117.64
117.461
117.271
117.084
119.79
119.8
119.812
119.824
119.808
119.719
119.597
119.473
119.354
119.239
119.124
119.006
118.885
118.759
118.629
118.496
118.359
118.218
118.072
117.919
117.759
117.592
117.416
117.24
117.056
119.741
119.749
119.76
119.785
119.779
119.683
119.572
119.461
119.342
119.223
119.101
118.978
118.85
118.718
118.584
118.447
118.308
118.167
118.022
117.873
117.718
117.557
117.393
117.221
117.05
119.696
119.702
119.715
119.741
119.726
119.639
119.548
119.444
119.329
119.21
119.087
118.959
118.827
118.692
118.554
118.415
118.275
118.134
117.991
117.845
117.696
117.543
117.386
117.23
117.066
119.652
119.657
119.676
119.699
119.662
119.594
119.517
119.421
119.312
119.195
119.072
118.945
118.812
118.676
118.537
118.398
118.258
118.118
117.978
117.837
117.694
117.549
117.404
117.255
117.103
119.619
119.62
119.638
119.652
119.597
119.54
119.475
119.386
119.284
119.172
119.054
118.928
118.799
118.665
118.528
118.391
118.254
118.117
117.981
117.844
117.708
117.572
117.435
117.297
117.153
119.592
119.591
119.598
119.591
119.53
119.481
119.416
119.334
119.238
119.133
119.02
118.903
118.778
118.65
118.52
118.388
118.255
118.123
117.992
117.861
117.73
117.601
117.473
117.342
117.207
119.568
119.569
119.563
119.52
119.463
119.408
119.34
119.261
119.173
119.075
118.972
118.86
118.745
118.626
118.503
118.379
118.253
118.127
118.001
117.876
117.752
117.629
117.506
117.382
117.251
119.543
119.546
119.527
119.448
119.385
119.322
119.249
119.171
119.088
118.999
118.902
118.802
118.696
118.586
118.473
118.358
118.24
118.121
118.002
117.882
117.764
117.645
117.527
117.405
117.282
119.516
119.519
119.479
119.369
119.297
119.224
119.147
119.069
118.99
118.907
118.821
118.727
118.632
118.532
118.429
118.322
118.213
118.101
117.988
117.875
117.761
117.647
117.53
117.414
117.292
119.485
119.485
119.416
119.299
119.207
119.125
119.045
118.966
118.889
118.811
118.73
118.647
118.558
118.467
118.373
118.275
118.173
118.069
117.962
117.853
117.744
117.633
117.521
117.404
117.289
119.453
119.449
119.353
119.24
119.132
119.037
118.952
118.872
118.796
118.721
118.646
118.566
118.486
118.401
118.314
118.222
118.127
118.028
117.927
117.824
117.718
117.611
117.5
117.39
117.277
119.417
119.41
119.292
119.191
119.071
118.969
118.88
118.797
118.72
118.647
118.573
118.5
118.422
118.342
118.259
118.172
118.082
117.989
117.892
117.794
117.692
117.589
117.484
117.375
117.268
119.384
119.37
119.236
119.143
119.029
118.923
118.831
118.746
118.668
118.594
118.522
118.449
118.374
118.297
118.216
118.133
118.047
117.957
117.865
117.77
117.673
117.574
117.472
117.371
117.268
119.353
119.327
119.191
119.105
118.998
118.896
118.803
118.717
118.637
118.562
118.489
118.418
118.343
118.267
118.188
118.107
118.023
117.937
117.848
117.757
117.665
117.57
117.475
117.377
117.28
119.322
119.284
119.158
119.073
118.977
118.88
118.789
118.703
118.622
118.546
118.473
118.399
118.326
118.25
118.172
118.092
118.01
117.927
117.841
117.754
117.666
117.576
117.485
117.394
117.302
119.287
119.239
119.129
119.044
118.955
118.866
118.779
118.695
118.614
118.537
118.462
118.389
118.315
118.239
118.162
118.084
118.004
117.923
117.841
117.757
117.672
117.586
117.5
117.413
117.327
119.248
119.19
119.095
119.011
118.93
118.848
118.766
118.685
118.605
118.527
118.452
118.378
118.304
118.229
118.153
118.076
117.998
117.92
117.84
117.759
117.678
117.596
117.513
117.432
117.349
119.2
119.132
119.052
118.971
118.896
118.821
118.745
118.668
118.59
118.513
118.438
118.364
118.29
118.216
118.141
118.066
117.99
117.913
117.836
117.758
117.68
117.601
117.522
117.443
117.365
119.137
119.066
118.999
118.924
118.855
118.786
118.716
118.643
118.569
118.493
118.419
118.345
118.272
118.199
118.125
118.051
117.977
117.903
117.828
117.753
117.677
117.601
117.524
117.45
117.374
119.063
118.998
118.94
118.874
118.81
118.747
118.682
118.614
118.543
118.471
118.397
118.325
118.252
118.18
118.107
118.035
117.962
117.89
117.817
117.744
117.671
117.598
117.525
117.452
117.381
118.985
118.93
118.88
118.821
118.765
118.707
118.647
118.583
118.516
118.446
118.375
118.303
118.232
118.161
118.089
118.018
117.948
117.877
117.807
117.736
117.665
117.595
117.524
117.455
117.387
118.906
118.862
118.82
118.769
118.719
118.666
118.611
118.551
118.488
118.421
118.352
118.283
118.213
118.143
118.073
118.004
117.935
117.866
117.798
117.73
117.661
117.593
117.526
117.46
117.395
118.831
118.795
118.76
118.717
118.673
118.625
118.574
118.518
118.459
118.395
118.329
118.262
118.194
118.126
118.058
117.99
117.923
117.857
117.791
117.724
117.658
117.593
117.529
117.466
117.404
118.759
118.73
118.702
118.665
118.626
118.583
118.536
118.484
118.428
118.368
118.305
118.24
118.174
118.108
118.042
117.977
117.912
117.848
117.784
117.72
117.657
117.594
117.533
117.473
117.413
118.692
118.667
118.644
118.611
118.577
118.538
118.495
118.447
118.394
118.338
118.278
118.216
118.153
118.09
118.026
117.963
117.901
117.838
117.777
117.715
117.655
117.595
117.536
117.479
117.422
118.627
118.607
118.586
118.558
118.528
118.492
118.453
118.408
118.359
118.306
118.249
118.191
118.131
118.07
118.01
117.949
117.889
117.829
117.77
117.711
117.652
117.595
117.539
117.484
117.429
118.567
118.549
118.531
118.505
118.478
118.445
118.409
118.368
118.322
118.272
118.22
118.164
118.108
118.05
117.992
117.934
117.877
117.819
117.762
117.706
117.65
117.595
117.541
117.488
117.434
118.509
118.494
118.478
118.455
118.429
118.399
118.365
118.327
118.284
118.238
118.189
118.138
118.084
118.03
117.975
117.92
117.864
117.809
117.755
117.7
117.647
117.594
117.542
117.49
117.439
118.455
118.441
118.427
118.405
118.382
118.353
118.322
118.286
118.247
118.204
118.158
118.11
118.06
118.009
117.957
117.904
117.852
117.799
117.746
117.694
117.642
117.591
117.541
117.491
117.441
118.403
118.391
118.378
118.358
118.336
118.308
118.278
118.245
118.209
118.169
118.127
118.082
118.035
117.987
117.938
117.889
117.838
117.788
117.737
117.687
117.637
117.587
117.539
117.49
117.442
118.356
118.345
118.333
118.312
118.291
118.265
118.236
118.205
118.171
118.135
118.096
118.053
118.01
117.965
117.919
117.872
117.824
117.776
117.727
117.679
117.63
117.582
117.534
117.488
117.441
118.312
118.302
118.29
118.271
118.249
118.224
118.197
118.167
118.135
118.101
118.064
118.026
117.985
117.943
117.899
117.854
117.809
117.763
117.716
117.669
117.622
117.576
117.529
117.483
117.438
118.274
118.263
118.252
118.232
118.212
118.187
118.16
118.132
118.102
118.07
118.036
117.999
117.961
117.921
117.88
117.837
117.794
117.749
117.705
117.659
117.614
117.568
117.523
117.479
117.434
118.24
118.23
118.219
118.199
118.179
118.155
118.129
118.102
118.073
118.043
118.01
117.975
117.939
117.901
117.862
117.821
117.779
117.737
117.694
117.65
117.606
117.561
117.518
117.474
117.43
118.213
118.204
118.193
118.173
118.153
118.129
118.104
118.078
118.05
118.02
117.989
117.955
117.92
117.884
117.846
117.807
117.767
117.726
117.684
117.641
117.598
117.555
117.512
117.47
117.427
118.194
118.184
118.174
118.154
118.135
118.111
118.087
118.061
118.033
118.003
117.972
117.94
117.906
117.871
117.834
117.796
117.757
117.717
117.676
117.634
117.593
117.551
117.509
117.467
117.425
118.182
118.171
118.162
118.142
118.124
118.101
118.076
118.05
118.022
117.993
117.962
117.93
117.896
117.862
117.825
117.788
117.75
117.711
117.671
117.63
117.589
117.548
117.507
117.466
117.425
118.177
118.166
118.157
118.137
118.119
118.096
118.072
118.046
118.018
117.988
117.957
117.925
117.891
117.857
117.821
117.784
117.746
117.707
117.668
117.628
117.588
117.547
117.507
117.467
117.427
118.177
118.166
118.158
118.138
118.119
118.097
118.072
118.045
118.017
117.987
117.956
117.923
117.89
117.855
117.819
117.782
117.744
117.706
117.667
117.628
117.588
117.548
117.509
117.469
117.429
118.187
118.172
118.166
118.144
118.123
118.099
118.074
118.047
118.018
117.987
117.956
117.923
117.889
117.854
117.818
117.781
117.744
117.706
117.667
117.628
117.589
117.549
117.51
117.471
117.432
118.228
118.194
118.177
118.152
118.127
118.102
118.075
118.047
118.018
117.988
117.956
117.923
117.889
117.854
117.818
117.781
117.744
117.706
117.667
117.628
117.589
117.55
117.511
117.472
117.433
118.304
118.226
118.185
118.155
118.128
118.102
118.075
118.048
118.018
117.988
117.956
117.923
117.889
117.854
117.818
117.781
117.744
117.706
117.667
117.629
117.59
117.551
117.512
117.473
117.434
121.323
121.314
121.305
121.299
121.294
121.29
121.286
121.281
121.27
121.253
121.234
121.221
121.22
121.237
121.268
121.305
121.327
121.323
121.299
121.276
121.274
121.29
121.305
121.307
121.303
121.345
121.333
121.321
121.311
121.304
121.297
121.286
121.264
121.232
121.196
121.166
121.151
121.151
121.172
121.209
121.251
121.284
121.296
121.291
121.282
121.278
121.284
121.294
121.301
121.299
121.379
121.363
121.342
121.319
121.288
121.25
121.203
121.147
121.086
121.03
120.993
120.976
120.976
121
121.044
121.098
121.15
121.195
121.231
121.261
121.283
121.297
121.305
121.304
121.3
121.397
121.381
121.349
121.305
121.243
121.167
121.08
120.989
120.9
120.825
120.777
120.755
120.758
120.785
120.831
120.888
120.951
121.018
121.089
121.162
121.231
121.282
121.306
121.306
121.3
121.384
121.37
121.332
121.273
121.187
121.079
120.956
120.83
120.712
120.615
120.549
120.52
120.523
120.552
120.601
120.666
120.739
120.819
120.907
121.003
121.105
121.199
121.266
121.292
121.29
121.355
121.343
121.303
121.235
121.133
120.997
120.838
120.671
120.516
120.392
120.304
120.254
120.244
120.274
120.338
120.424
120.521
120.623
120.728
120.839
120.955
121.076
121.189
121.261
121.275
121.333
121.323
121.281
121.206
121.089
120.928
120.731
120.517
120.315
120.15
120.027
119.946
119.916
119.944
120.025
120.143
120.279
120.417
120.55
120.68
120.809
120.942
121.077
121.189
121.236
121.326
121.319
121.278
121.196
121.065
120.883
120.651
120.385
120.128
119.911
119.742
119.622
119.567
119.585
119.678
119.827
120.004
120.186
120.357
120.518
120.671
120.816
120.955
121.075
121.148
121.327
121.323
121.289
121.206
121.067
120.871
120.614
120.306
119.993
119.72
119.499
119.336
119.247
119.237
119.322
119.491
119.706
119.935
120.152
120.354
120.54
120.708
120.856
120.971
121.043
121.325
121.324
121.3
121.227
121.093
120.899
120.635
120.306
119.947
119.623
119.355
119.147
119.019
118.966
119.02
119.195
119.44
119.711
119.974
120.214
120.432
120.627
120.79
120.907
120.973
121.319
121.318
121.304
121.247
121.132
120.959
120.715
120.392
120.01
119.638
119.33
119.089
118.937
118.894
118.906
119.051
119.299
119.589
119.876
120.14
120.377
120.589
120.766
120.891
120.961
121.307
121.303
121.292
121.256
121.17
121.034
120.833
120.547
120.19
119.809
119.466
119.192
119.003
118.92
118.926
119.058
119.305
119.599
119.889
120.158
120.399
120.611
120.793
120.923
121.003
121.29
121.277
121.263
121.244
121.194
121.108
120.968
120.752
120.454
120.109
119.76
119.458
119.235
119.121
119.119
119.234
119.456
119.729
120.005
120.261
120.493
120.698
120.875
121
121.088
121.276
121.249
121.228
121.215
121.199
121.166
121.094
120.957
120.739
120.454
120.136
119.837
119.6
119.465
119.446
119.533
119.716
119.952
120.198
120.434
120.65
120.842
121.003
121.116
121.198
121.287
121.245
121.211
121.191
121.19
121.204
121.199
121.136
120.994
120.777
120.511
120.238
120.009
119.862
119.82
119.875
120.015
120.21
120.427
120.643
120.844
121.022
121.167
121.259
121.329
121.336
121.284
121.223
121.188
121.192
121.24
121.29
121.289
121.209
121.05
120.833
120.595
120.382
120.233
120.17
120.194
120.296
120.456
120.649
120.852
121.047
121.22
121.353
121.433
121.487
121.399
121.347
121.264
121.2
121.211
121.287
121.374
121.416
121.379
121.26
121.079
120.871
120.676
120.528
120.453
120.455
120.528
120.662
120.838
121.034
121.231
121.408
121.547
121.63
121.684
121.43
121.364
121.261
121.204
121.234
121.335
121.443
121.509
121.501
121.404
121.243
121.055
120.876
120.734
120.657
120.646
120.699
120.815
120.979
121.173
121.373
121.562
121.719
121.828
121.905
121.419
121.347
121.242
121.191
121.222
121.329
121.447
121.532
121.547
121.468
121.318
121.142
120.972
120.84
120.762
120.748
120.795
120.902
121.059
121.251
121.46
121.661
121.836
121.972
122.078
121.433
121.376
121.282
121.193
121.175
121.256
121.378
121.468
121.489
121.434
121.314
121.158
121.002
120.875
120.798
120.781
120.825
120.929
121.083
121.278
121.49
121.7
121.887
122.034
122.138
121.623
121.505
121.43
121.309
121.233
121.252
121.317
121.356
121.342
121.275
121.164
121.032
120.903
120.803
120.748
120.747
120.801
120.908
121.064
121.257
121.472
121.683
121.871
122.029
122.129
121.887
121.645
121.476
121.325
121.231
121.211
121.217
121.203
121.154
121.07
120.96
120.837
120.723
120.641
120.605
120.622
120.689
120.805
120.964
121.162
121.379
121.59
121.772
121.939
122.066
121.843
121.6
121.425
121.3
121.208
121.151
121.105
121.047
120.968
120.869
120.755
120.637
120.525
120.442
120.404
120.415
120.475
120.583
120.739
120.935
121.157
121.371
121.541
121.688
121.831
121.75
121.567
121.414
121.288
121.171
121.066
120.971
120.875
120.771
120.656
120.533
120.407
120.29
120.195
120.137
120.12
120.146
120.219
120.344
120.523
120.738
120.953
121.113
121.205
121.288
121.631
121.481
121.329
121.186
121.049
120.92
120.8
120.681
120.558
120.426
120.287
120.147
120.011
119.891
119.796
119.731
119.7
119.706
119.762
119.872
120.036
120.222
120.36
120.385
120.339
121.473
121.34
121.195
121.05
120.907
120.766
120.627
120.485
120.337
120.18
120.018
119.848
119.681
119.519
119.371
119.241
119.132
119.046
118.986
118.967
118.995
119.064
119.125
119.097
118.982
121.29
121.17
121.032
120.887
120.736
120.58
120.421
120.255
120.08
119.896
119.7
119.5
119.289
119.076
118.861
118.648
118.437
118.223
118.006
117.783
117.567
117.367
117.162
116.921
116.466
121.083
120.97
120.837
120.69
120.532
120.364
120.187
119.999
119.8
119.586
119.358
119.113
118.853
118.576
118.279
117.961
117.614
117.229
116.787
116.275
115.675
114.992
114.199
113.41
112.335
120.854
120.746
120.615
120.466
120.301
120.122
119.928
119.718
119.491
119.245
118.975
118.683
118.361
118.006
117.61
117.161
116.646
116.039
115.301
114.38
113.197
111.682
109.56
106.909
101.881
120.606
120.501
120.37
120.218
120.046
119.854
119.642
119.41
119.153
118.87
118.559
118.207
117.817
117.373
116.862
116.262
115.544
114.664
113.544
112.087
110.074
107.351
102.953
97.9624
80.8309
120.343
120.238
120.106
119.949
119.768
119.563
119.333
119.077
118.79
118.469
118.105
117.7
117.23
116.69
116.052
115.284
114.338
113.144
111.582
109.473
106.376
101.844
92.842
77.7735
22.9489
120.068
119.962
119.827
119.663
119.473
119.253
119.004
118.723
118.404
118.042
117.632
117.157
116.61
115.966
115.193
114.25
113.067
111.55
109.534
106.784
102.741
96.7006
86.2622
69.3204
40.9915
119.785
119.677
119.536
119.365
119.163
118.929
118.66
118.353
118.002
117.6
117.134
116.6
115.968
115.219
114.312
113.193
111.782
109.962
107.554
104.285
99.7066
93.1459
83.6803
69.6521
52.7343
119.501
119.387
119.24
119.059
118.845
118.595
118.306
117.973
117.589
117.146
116.635
116.029
115.321
114.469
113.433
112.148
110.527
108.439
105.7
102.048
97.0877
90.2738
80.953
67.9802
51.4521
119.219
119.098
118.942
118.751
118.524
118.258
117.948
117.59
117.175
116.695
116.129
115.471
114.682
113.736
112.58
111.146
109.338
107.019
104.009
100.035
94.7542
87.6732
78.2315
65.6901
49.9046
118.944
118.814
118.649
118.447
118.206
117.923
117.594
117.212
116.768
116.249
115.645
114.924
114.07
113.041
111.78
110.217
108.249
105.74
102.495
98.2703
92.7083
85.3752
75.7823
63.378
48.0254
118.682
118.541
118.364
118.15
117.896
117.597
117.25
116.845
116.375
115.825
115.176
114.416
113.502
112.4
111.054
109.386
107.292
104.629
101.21
96.7617
90.9546
83.3278
73.3922
60.5475
44.7174
118.436
118.283
118.094
117.867
117.6
117.286
116.922
116.498
116.004
115.427
114.752
113.946
112.991
111.835
110.425
108.68
106.495
103.725
100.164
95.5602
89.5235
81.5769
71.1685
57.4164
40.3616
118.209
118.043
117.842
117.602
117.322
116.995
116.616
116.175
115.664
115.068
114.363
113.539
112.548
111.359
109.91
108.123
105.888
103.057
99.4198
94.686
88.4183
80.1105
68.9899
53.8056
34.8763
118.004
117.824
117.61
117.359
117.067
116.728
116.337
115.884
115.359
114.747
114.035
113.188
112.187
110.986
109.526
107.735
105.501
102.68
99.0315
94.2736
87.777
79.0276
66.3038
48.6812
24.908
117.822
117.628
117.402
117.14
116.837
116.489
116.088
115.627
115.095
114.477
113.755
112.913
111.913
110.721
109.284
107.529
105.358
102.629
99.1263
94.5266
88.1638
79.3524
64.9286
44.413
6.06738
117.663
117.456
117.219
116.946
116.635
116.279
115.873
115.407
114.873
114.255
113.543
112.705
111.728
110.566
109.18
107.504
105.454
102.912
99.6905
95.5422
89.9367
82.2547
69.7655
51.405
0.0529482
117.527
117.309
117.061
116.78
116.462
116.102
115.692
115.227
114.695
114.087
113.382
112.574
111.626
110.516
109.204
107.64
105.756
103.46
100.63
97.0728
92.5204
86.6198
78.5504
68.6482
48.6855
117.414
117.185
116.929
116.641
116.319
115.956
115.547
115.085
114.561
113.965
113.287
112.503
111.603
110.56
109.34
107.909
106.216
104.2
101.774
98.8457
95.2662
90.8901
85.5072
79.1297
71.1908
117.322
117.085
116.822
116.53
116.205
115.842
115.436
114.981
114.47
113.894
113.239
112.499
111.652
110.682
109.566
108.277
106.782
105.041
103.015
100.645
97.8998
94.757
91.274
87.7275
84.7193
117.249
117.006
116.739
116.445
116.119
115.759
115.359
114.915
114.419
113.865
113.247
112.546
111.76
110.869
109.859
108.711
107.407
105.926
104.244
102.358
100.259
97.9898
95.6527
93.4889
91.8799
117.195
116.948
116.679
116.385
116.062
115.706
115.315
114.884
114.407
113.881
113.293
112.644
111.916
111.105
110.198
109.185
108.056
106.801
105.422
103.916
102.315
100.669
99.0841
97.7365
96.8628
117.156
116.908
116.64
116.348
116.029
115.681
115.301
114.885
114.43
113.93
113.383
112.777
112.112
111.377
110.566
109.676
108.701
107.643
106.505
105.309
104.078
102.866
101.758
100.87
100.326
117.13
116.883
116.617
116.33
116.018
115.68
115.313
114.915
114.483
114.013
113.501
112.945
112.335
111.671
110.948
110.165
109.324
108.429
107.496
106.534
105.582
104.677