/*--------------------------------*- C++ -*----------------------------------*\
  =========                 |
  \\      /  F ield         | OpenFOAM: The Open Source CFD Toolbox
   \\    /   O peration     | Website:  https://openfoam.org
    \\  /    A nd           | Version:  13
     \\/     M anipulation  |
\*---------------------------------------------------------------------------*/
FoamFile
{
    format      ascii;
    class       volScalarField;
    location    "5";
    object      p;
}
// * * * * * * * * * * * * * * * * * * * * * * * * * * * * * * * * * * * * * //

dimensions      [0 2 -2 0 0 0 0];

internalField   nonuniform List<scalar> 
6440
(
0.00159635
0.00159657
0.00159707
0.00159783
0.00159882
0.00159999
0.00160126
0.00160255
0.00160376
0.00160481
0.00160558
0.00160599
0.00160596
0.00160543
0.00160438
0.00160282
0.00160079
0.00159836
0.00159562
0.00159268
0.00158963
0.00158653
0.00158351
0.00158066
0.00157829
0.00159499
0.00159521
0.00159569
0.00159642
0.00159739
0.00159854
0.00159983
0.00160118
0.0016025
0.00160371
0.00160471
0.00160539
0.00160567
0.00160545
0.00160467
0.00160329
0.0016013
0.00159874
0.00159562
0.00159199
0.00158792
0.00158357
0.00157911
0.00157477
0.00157097
0.00159289
0.00159316
0.00159369
0.0015945
0.00159555
0.00159681
0.00159825
0.00159981
0.00160138
0.00160288
0.0016042
0.00160522
0.00160584
0.00160592
0.00160538
0.00160412
0.00160211
0.00159931
0.0015957
0.00159128
0.00158622
0.00158066
0.00157487
0.00156927
0.00156452
0.00159017
0.0015905
0.00159112
0.00159204
0.00159325
0.0015947
0.00159635
0.00159814
0.00160002
0.00160184
0.0016035
0.00160487
0.00160582
0.00160622
0.00160592
0.00160481
0.0016028
0.00159982
0.00159583
0.00159076
0.00158485
0.00157827
0.00157132
0.00156463
0.00155905
0.00158675
0.00158715
0.00158786
0.00158893
0.00159031
0.00159197
0.00159385
0.0015959
0.00159804
0.0016002
0.00160221
0.00160396
0.00160528
0.00160603
0.00160604
0.00160517
0.00160329
0.00160029
0.0015961
0.0015906
0.00158404
0.00157659
0.0015686
0.00156087
0.00155445
0.00158259
0.00158305
0.00158388
0.00158508
0.00158664
0.00158851
0.00159064
0.00159294
0.00159537
0.00159784
0.00160021
0.00160233
0.00160406
0.00160521
0.00160562
0.0016051
0.00160348
0.00160063
0.00159644
0.00159077
0.00158373
0.00157555
0.00156661
0.00155787
0.00155061
0.00157769
0.00157821
0.00157913
0.00158048
0.00158223
0.00158432
0.00158669
0.00158927
0.00159197
0.00159473
0.00159746
0.00159996
0.0016021
0.0016037
0.00160457
0.0016045
0.00160328
0.00160075
0.00159676
0.00159114
0.00158379
0.001575
0.0015652
0.00155548
0.00154738
0.00157203
0.00157262
0.00157364
0.00157514
0.00157708
0.0015794
0.00158202
0.00158488
0.00158787
0.00159094
0.00159399
0.00159685
0.0015994
0.00160146
0.00160283
0.00160329
0.00160259
0.00160051
0.00159686
0.00159145
0.00158402
0.0015748
0.0015642
0.0015535
0.00154455
0.00156564
0.00156628
0.00156741
0.00156907
0.0015712
0.00157375
0.00157664
0.00157978
0.00158309
0.00158645
0.0015898
0.00159304
0.00159598
0.00159848
0.00160035
0.00160138
0.00160129
0.00159979
0.00159662
0.00159156
0.00158432
0.00157479
0.00156347
0.0015518
0.00154202
0.00155855
0.00155924
0.00156047
0.00156227
0.0015646
0.00156739
0.00157055
0.001574
0.00157763
0.00158133
0.00158502
0.0015886
0.0015919
0.0015948
0.00159714
0.00159872
0.00159926
0.00159844
0.0015959
0.00159134
0.00158446
0.00157487
0.001563
0.00155046
0.00153985
0.00155078
0.00155151
0.00155283
0.00155476
0.00155727
0.00156029
0.00156373
0.0015675
0.00157147
0.00157554
0.0015796
0.00158352
0.00158718
0.00159045
0.00159321
0.00159529
0.00159644
0.00159634
0.00159457
0.00159068
0.00158429
0.00157498
0.00156278
0.00154947
0.00153803
0.00154239
0.00154315
0.00154453
0.00154657
0.00154924
0.00155246
0.00155615
0.00156023
0.00156456
0.00156902
0.00157348
0.00157778
0.00158182
0.00158546
0.0015886
0.00159112
0.00159283
0.00159343
0.00159249
0.00158947
0.00158379
0.00157498
0.00156274
0.00154878
0.0015365
0.00153345
0.00153422
0.00153563
0.00153774
0.0015405
0.00154387
0.00154778
0.00155212
0.00155679
0.00156165
0.00156654
0.00157129
0.00157576
0.0015798
0.00158334
0.00158627
0.00158846
0.00158969
0.00158959
0.00158757
0.00158287
0.00157477
0.00156285
0.00154836
0.00153524
0.00152404
0.0015248
0.00152621
0.00152832
0.00153112
0.00153455
0.00153857
0.0015431
0.00154803
0.00155325
0.00155857
0.00156382
0.0015688
0.00157334
0.00157734
0.00158073
0.00158341
0.00158523
0.0015859
0.00158491
0.00158141
0.00157436
0.00156297
0.00154838
0.00153452
0.00151428
0.001515
0.00151635
0.00151841
0.00152115
0.00152453
0.00152854
0.0015331
0.00153815
0.00154358
0.00154923
0.00155493
0.00156051
0.00156571
0.00157036
0.00157437
0.00157764
0.00158011
0.00158157
0.00158158
0.00157938
0.00157373
0.00156333
0.00154906
0.0015346
0.00150429
0.00150494
0.0015062
0.00150812
0.00151069
0.0015139
0.00151773
0.00152214
0.00152708
0.00153248
0.00153821
0.00154418
0.00155027
0.00155619
0.00156171
0.00156667
0.0015709
0.00157425
0.0015766
0.00157771
0.0015769
0.00157295
0.00156421
0.00155083
0.00153607
0.00149422
0.00149478
0.00149589
0.0014976
0.0014999
0.00150279
0.00150625
0.00151027
0.00151483
0.00151987
0.00152535
0.00153124
0.00153745
0.00154391
0.00155031
0.00155645
0.00156207
0.0015669
0.00157069
0.00157317
0.00157398
0.00157225
0.00156605
0.00155474
0.00154072
0.00148422
0.00148468
0.00148559
0.00148702
0.00148894
0.00149137
0.00149429
0.00149769
0.00150158
0.00150592
0.00151072
0.00151603
0.00152184
0.00152818
0.00153506
0.00154217
0.00154927
0.00155607
0.00156222
0.00156729
0.00157077
0.00157203
0.00156969
0.00156319
0.00155212
0.00147447
0.00147481
0.0014755
0.00147659
0.00147805
0.0014799
0.00148213
0.00148473
0.00148771
0.00149107
0.00149488
0.00149922
0.00150415
0.00150971
0.00151596
0.00152306
0.00153098
0.00153942
0.00154818
0.00155707
0.00156552
0.00157289
0.00157772
0.00158017
0.00157673
0.00146512
0.00146534
0.00146581
0.00146654
0.00146755
0.00146881
0.00147033
0.0014721
0.00147414
0.00147647
0.00147919
0.00148237
0.0014861
0.00149048
0.00149567
0.00150183
0.00150907
0.00151765
0.00152777
0.00153968
0.00155357
0.00156975
0.00158757
0.00160781
0.00162589
0.00145626
0.0014564
0.00145673
0.00145726
0.00145799
0.00145891
0.00146002
0.00146132
0.00146283
0.0014646
0.00146668
0.00146916
0.00147213
0.00147571
0.00148006
0.00148536
0.00149183
0.00149979
0.00150966
0.00152188
0.00153768
0.0015581
0.00158649
0.00163229
0.00171782
0.00144767
0.0014478
0.0014481
0.00144858
0.00144925
0.00145011
0.00145114
0.00145237
0.00145381
0.0014555
0.00145751
0.00145989
0.00146275
0.0014662
0.00147041
0.00147556
0.00148191
0.00148982
0.00149975
0.00151234
0.0015287
0.00155054
0.00158139
0.00162795
0.00169959
0.00143937
0.0014395
0.00143979
0.00144027
0.00144093
0.00144178
0.00144282
0.00144405
0.0014455
0.00144721
0.00144923
0.00145162
0.00145448
0.00145792
0.00146209
0.00146718
0.00147346
0.00148124
0.00149099
0.00150331
0.00151913
0.00153981
0.00156748
0.00160472
0.00165058
0.00143134
0.00143148
0.00143177
0.00143224
0.00143289
0.00143373
0.00143476
0.00143598
0.00143743
0.00143912
0.00144111
0.00144345
0.00144623
0.00144956
0.00145358
0.00145846
0.00146441
0.00147173
0.00148076
0.00149199
0.00150601
0.00152357
0.00154541
0.00157161
0.00159962
0.00142361
0.00142374
0.00142402
0.00142447
0.00142511
0.00142592
0.00142691
0.00142809
0.00142947
0.00143108
0.00143297
0.00143518
0.00143778
0.00144088
0.00144458
0.00144903
0.00145439
0.00146089
0.00146876
0.00147828
0.00148974
0.00150337
0.00151911
0.00153618
0.00155232
0.00141617
0.00141629
0.00141656
0.00141698
0.00141758
0.00141834
0.00141926
0.00142036
0.00142164
0.00142313
0.00142485
0.00142684
0.00142918
0.00143193
0.00143518
0.00143903
0.00144361
0.00144905
0.00145547
0.00146298
0.00147165
0.00148136
0.00149173
0.00150179
0.00150982
0.00140902
0.00140913
0.00140938
0.00140977
0.00141031
0.001411
0.00141184
0.00141283
0.00141397
0.00141528
0.00141678
0.00141851
0.0014205
0.00142282
0.00142552
0.00142867
0.00143234
0.00143658
0.00144143
0.00144689
0.00145285
0.00145905
0.00146497
0.00146975
0.0014721
0.00140216
0.00140226
0.00140248
0.00140283
0.00140331
0.00140391
0.00140464
0.00140549
0.00140647
0.00140757
0.00140882
0.00141023
0.00141183
0.00141366
0.00141575
0.00141813
0.00142083
0.00142384
0.00142715
0.00143065
0.00143416
0.00143736
0.00143974
0.00144056
0.00143888
0.0013956
0.00139569
0.00139588
0.00139617
0.00139658
0.00139709
0.00139769
0.00139839
0.00139917
0.00140004
0.00140101
0.00140207
0.00140325
0.00140456
0.001406
0.0014076
0.00140933
0.00141115
0.001413
0.00141473
0.00141612
0.00141684
0.00141645
0.00141433
0.00140977
0.00138935
0.00138942
0.00138957
0.00138981
0.00139013
0.00139053
0.001391
0.00139153
0.00139211
0.00139273
0.00139339
0.00139409
0.00139483
0.00139561
0.00139642
0.00139725
0.00139805
0.00139877
0.00139929
0.00139947
0.00139907
0.0013978
0.00139526
0.00139097
0.00138437
0.0013834
0.00138345
0.00138356
0.00138374
0.00138398
0.00138426
0.00138459
0.00138494
0.0013853
0.00138567
0.00138602
0.00138636
0.00138666
0.00138692
0.00138712
0.00138721
0.00138716
0.00138687
0.00138624
0.0013851
0.00138323
0.00138038
0.0013762
0.00137031
0.00136229
0.00137776
0.00137779
0.00137786
0.00137798
0.00137812
0.00137829
0.00137847
0.00137864
0.00137879
0.00137889
0.00137894
0.00137892
0.0013788
0.00137857
0.00137819
0.00137761
0.00137678
0.00137561
0.00137398
0.00137174
0.00136869
0.0013646
0.0013592
0.00135216
0.00134318
0.00137243
0.00137245
0.00137248
0.00137252
0.00137258
0.00137263
0.00137266
0.00137265
0.00137258
0.00137244
0.00137219
0.00137182
0.00137131
0.00137061
0.00136971
0.00136853
0.00136702
0.00136509
0.00136262
0.00135948
0.00135549
0.00135046
0.00134415
0.00133631
0.00132671
0.00136742
0.00136742
0.0013674
0.00136738
0.00136735
0.00136728
0.00136717
0.00136699
0.00136672
0.00136633
0.0013658
0.00136511
0.00136423
0.00136312
0.00136174
0.00136003
0.00135793
0.00135536
0.00135221
0.00134834
0.00134363
0.00133788
0.00133092
0.00132256
0.0013126
0.00136272
0.0013627
0.00136265
0.00136257
0.00136245
0.00136227
0.00136202
0.00136167
0.0013612
0.00136059
0.0013598
0.00135882
0.0013576
0.00135611
0.00135432
0.00135215
0.00134956
0.00134646
0.00134275
0.00133832
0.00133305
0.00132679
0.0013194
0.00131071
0.00130059
0.00135835
0.00135831
0.00135822
0.00135808
0.00135787
0.00135759
0.0013572
0.0013567
0.00135605
0.00135523
0.00135421
0.00135296
0.00135144
0.00134963
0.00134748
0.00134493
0.00134192
0.00133839
0.00133424
0.00132938
0.00132371
0.0013171
0.00130943
0.00130059
0.00129045
0.0013543
0.00135425
0.00135412
0.00135392
0.00135363
0.00135325
0.00135274
0.00135209
0.00135127
0.00135026
0.00134903
0.00134755
0.00134578
0.00134368
0.00134123
0.00133836
0.00133502
0.00133115
0.00132667
0.00132149
0.00131554
0.00130871
0.0013009
0.00129202
0.00128198
0.00135057
0.0013505
0.00135034
0.00135008
0.00134972
0.00134925
0.00134863
0.00134785
0.00134688
0.00134571
0.00134429
0.0013426
0.00134061
0.00133828
0.00133557
0.00133245
0.00132885
0.00132472
0.00131999
0.0013146
0.00130847
0.00130152
0.00129367
0.00128485
0.001275
0.00134716
0.00134707
0.00134688
0.00134658
0.00134615
0.00134559
0.00134487
0.00134398
0.00134288
0.00134155
0.00133997
0.00133811
0.00133593
0.00133341
0.00133051
0.00132718
0.00132338
0.00131906
0.00131417
0.00130864
0.00130242
0.00129544
0.00128764
0.00127896
0.00126935
0.00134407
0.00134397
0.00134374
0.00134339
0.00134291
0.00134227
0.00134147
0.00134047
0.00133926
0.0013378
0.00133609
0.00133408
0.00133175
0.00132908
0.00132602
0.00132254
0.0013186
0.00131415
0.00130916
0.00130357
0.00129732
0.00129038
0.00128268
0.00127419
0.00126488
0.00134128
0.00134117
0.00134092
0.00134053
0.00134
0.0013393
0.00133841
0.00133732
0.00133601
0.00133446
0.00133263
0.0013305
0.00132806
0.00132526
0.00132209
0.0013185
0.00131447
0.00130995
0.00130491
0.0012993
0.00129309
0.00128624
0.0012787
0.00127045
0.00126146
0.0013388
0.00133868
0.00133841
0.00133799
0.00133741
0.00133665
0.0013357
0.00133454
0.00133314
0.0013315
0.00132958
0.00132736
0.00132483
0.00132195
0.00131869
0.00131504
0.00131095
0.00130641
0.00130137
0.0012958
0.00128967
0.00128295
0.00127561
0.00126763
0.00125898
0.00133662
0.00133649
0.0013362
0.00133575
0.00133513
0.00133432
0.00133332
0.00133209
0.00133063
0.00132892
0.00132693
0.00132465
0.00132205
0.00131911
0.00131581
0.00131212
0.00130802
0.00130349
0.00129848
0.00129299
0.00128698
0.00128043
0.00127331
0.00126562
0.00125733
0.00133473
0.00133459
0.00133428
0.00133381
0.00133316
0.00133231
0.00133126
0.00132999
0.00132848
0.00132671
0.00132467
0.00132234
0.0013197
0.00131673
0.00131341
0.00130972
0.00130564
0.00130114
0.00129621
0.00129082
0.00128495
0.00127859
0.00127172
0.00126434
0.00125642
0.00133312
0.00133297
0.00133266
0.00133216
0.00133148
0.00133061
0.00132952
0.00132821
0.00132666
0.00132486
0.00132278
0.00132042
0.00131776
0.00131479
0.00131147
0.0013078
0.00130376
0.00129933
0.00129449
0.00128923
0.00128354
0.00127739
0.00127078
0.0012637
0.00125616
0.00133178
0.00133163
0.0013313
0.00133079
0.00133009
0.00132919
0.00132808
0.00132674
0.00132516
0.00132334
0.00132125
0.00131888
0.00131622
0.00131325
0.00130996
0.00130633
0.00130235
0.00129801
0.00129329
0.00128818
0.00128266
0.00127674
0.0012704
0.00126365
0.00125647
0.0013307
0.00133054
0.00133021
0.00132969
0.00132897
0.00132806
0.00132693
0.00132557
0.00132398
0.00132214
0.00132005
0.00131768
0.00131503
0.00131209
0.00130884
0.00130527
0.00130138
0.00129714
0.00129255
0.0012876
0.00128229
0.0012766
0.00127054
0.0012641
0.00125729
0.00132987
0.00132971
0.00132937
0.00132884
0.00132812
0.00132719
0.00132605
0.00132468
0.00132309
0.00132125
0.00131916
0.00131681
0.00131419
0.00131129
0.0013081
0.0013046
0.0013008
0.00129668
0.00129224
0.00128746
0.00128235
0.00127691
0.00127112
0.001265
0.00125855
0.00132927
0.00132911
0.00132877
0.00132824
0.00132751
0.00132657
0.00132543
0.00132406
0.00132247
0.00132064
0.00131857
0.00131625
0.00131366
0.00131082
0.00130769
0.00130429
0.00130059
0.0012966
0.00129231
0.00128772
0.00128282
0.00127761
0.0012721
0.00126629
0.0012602
0.0013289
0.00132874
0.0013284
0.00132787
0.00132713
0.0013262
0.00132506
0.0013237
0.00132211
0.0013203
0.00131826
0.00131597
0.00131344
0.00131065
0.0013076
0.00130429
0.00130071
0.00129686
0.00129273
0.00128832
0.00128363
0.00127867
0.00127343
0.00126793
0.00126217
0.00132875
0.00132859
0.00132824
0.00132771
0.00132698
0.00132605
0.00132491
0.00132356
0.001322
0.00132021
0.0013182
0.00131596
0.00131348
0.00131076
0.0013078
0.0013046
0.00130114
0.00129743
0.00129346
0.00128924
0.00128476
0.00128004
0.00127507
0.00126987
0.00126444
0.00132879
0.00132863
0.00132829
0.00132776
0.00132703
0.00132611
0.00132499
0.00132365
0.00132211
0.00132036
0.00131838
0.00131619
0.00131378
0.00131114
0.00130827
0.00130517
0.00130183
0.00129827
0.00129447
0.00129043
0.00128617
0.00128168
0.00127698
0.00127206
0.00126695
0.00132902
0.00132886
0.00132852
0.001328
0.00132728
0.00132637
0.00132526
0.00132395
0.00132243
0.00132071
0.00131879
0.00131665
0.0013143
0.00131174
0.00130897
0.00130598
0.00130278
0.00129936
0.00129572
0.00129188
0.00128782
0.00128357
0.00127912
0.00127448
0.00126967
0.00132942
0.00132927
0.00132893
0.00132842
0.00132771
0.00132681
0.00132572
0.00132443
0.00132295
0.00132127
0.00131939
0.00131732
0.00131504
0.00131256
0.00130989
0.00130701
0.00130394
0.00130067
0.0012972
0.00129354
0.00128969
0.00128566
0.00128145
0.00127709
0.00127257
0.00132999
0.00132983
0.00132951
0.001329
0.00132831
0.00132742
0.00132635
0.00132509
0.00132365
0.00132201
0.00132018
0.00131817
0.00131597
0.00131358
0.001311
0.00130824
0.0013053
0.00130217
0.00129886
0.00129538
0.00129173
0.00128792
0.00128396
0.00127985
0.00127561
0.0013307
0.00133055
0.00133023
0.00132973
0.00132905
0.00132819
0.00132714
0.00132591
0.0013245
0.00132291
0.00132114
0.00131919
0.00131706
0.00131476
0.00131229
0.00130964
0.00130683
0.00130384
0.0013007
0.0012974
0.00129394
0.00129034
0.00128661
0.00128274
0.00127877
0.00133155
0.00133141
0.0013311
0.00133061
0.00132994
0.0013291
0.00132808
0.00132688
0.00132551
0.00132396
0.00132225
0.00132036
0.00131832
0.0013161
0.00131373
0.0013112
0.00130851
0.00130567
0.00130268
0.00129955
0.00129628
0.00129289
0.00128937
0.00128574
0.00128202
0.00133253
0.00133239
0.00133209
0.00133161
0.00133096
0.00133014
0.00132914
0.00132798
0.00132665
0.00132515
0.00132349
0.00132168
0.0013197
0.00131758
0.00131531
0.00131289
0.00131033
0.00130762
0.00130479
0.00130182
0.00129874
0.00129554
0.00129223
0.00128883
0.00128534
0.00133362
0.00133349
0.00133319
0.00133273
0.00133209
0.00133129
0.00133033
0.0013292
0.00132791
0.00132646
0.00132486
0.00132311
0.00132121
0.00131918
0.001317
0.0013147
0.00131226
0.00130969
0.001307
0.0013042
0.00130128
0.00129827
0.00129516
0.00129198
0.00128872
0.00133482
0.00133469
0.0013344
0.00133395
0.00133333
0.00133255
0.00133162
0.00133052
0.00132927
0.00132787
0.00132633
0.00132465
0.00132283
0.00132088
0.0013188
0.0013166
0.00131428
0.00131185
0.0013093
0.00130665
0.00130391
0.00130107
0.00129816
0.00129517
0.00129212
0.0013361
0.00133598
0.0013357
0.00133526
0.00133466
0.00133391
0.001333
0.00133194
0.00133073
0.00132938
0.0013279
0.00132628
0.00132454
0.00132268
0.00132069
0.0013186
0.00131639
0.00131408
0.00131167
0.00130917
0.00130659
0.00130392
0.00130119
0.00129839
0.00129555
0.00133747
0.00133735
0.00133708
0.00133665
0.00133608
0.00133534
0.00133446
0.00133344
0.00133227
0.00133097
0.00132955
0.001328
0.00132633
0.00132455
0.00132266
0.00132066
0.00131857
0.00131638
0.0013141
0.00131174
0.00130931
0.00130681
0.00130425
0.00130163
0.00129898
0.00133891
0.00133879
0.00133853
0.00133812
0.00133756
0.00133685
0.001336
0.00133501
0.00133389
0.00133264
0.00133126
0.00132978
0.00132818
0.00132648
0.00132468
0.00132278
0.0013208
0.00131873
0.00131658
0.00131435
0.00131206
0.00130972
0.00130732
0.00130488
0.0013024
0.00134041
0.00134029
0.00134004
0.00133965
0.00133911
0.00133842
0.0013376
0.00133664
0.00133556
0.00133436
0.00133304
0.00133162
0.00133009
0.00132847
0.00132675
0.00132495
0.00132307
0.00132111
0.00131908
0.00131699
0.00131483
0.00131263
0.00131039
0.00130811
0.00130581
0.00134196
0.00134185
0.00134161
0.00134123
0.0013407
0.00134004
0.00133925
0.00133833
0.00133728
0.00133613
0.00133486
0.0013335
0.00133204
0.00133049
0.00132886
0.00132715
0.00132537
0.00132352
0.0013216
0.00131963
0.00131761
0.00131555
0.00131345
0.00131132
0.00130918
0.00134355
0.00134345
0.00134322
0.00134285
0.00134234
0.0013417
0.00134094
0.00134005
0.00133905
0.00133794
0.00133673
0.00133542
0.00133403
0.00133255
0.001331
0.00132938
0.00132769
0.00132594
0.00132413
0.00132228
0.00132038
0.00131845
0.00131649
0.0013145
0.00131251
0.00134518
0.00134508
0.00134486
0.0013445
0.00134402
0.0013434
0.00134266
0.00134181
0.00134084
0.00133978
0.00133861
0.00133737
0.00133604
0.00133463
0.00133316
0.00133162
0.00133002
0.00132837
0.00132666
0.00132492
0.00132314
0.00132133
0.0013195
0.00131765
0.0013158
0.00134684
0.00134674
0.00134653
0.00134618
0.00134571
0.00134512
0.00134441
0.00134359
0.00134266
0.00134164
0.00134052
0.00133933
0.00133806
0.00133672
0.00133532
0.00133386
0.00133235
0.00133079
0.00132918
0.00132754
0.00132588
0.00132418
0.00132247
0.00132075
0.00131903
0.00134851
0.00134842
0.00134821
0.00134788
0.00134743
0.00134686
0.00134617
0.00134538
0.00134449
0.00134351
0.00134244
0.0013413
0.00134009
0.00133881
0.00133748
0.0013361
0.00133467
0.00133319
0.00133169
0.00133015
0.00132858
0.001327
0.0013254
0.0013238
0.0013222
0.00135019
0.00135011
0.00134991
0.00134959
0.00134916
0.00134861
0.00134795
0.00134718
0.00134633
0.00134538
0.00134436
0.00134327
0.00134212
0.0013409
0.00133964
0.00133833
0.00133697
0.00133558
0.00133416
0.00133271
0.00133125
0.00132977
0.00132828
0.00132679
0.0013253
0.00135188
0.0013518
0.00135161
0.00135131
0.00135089
0.00135036
0.00134972
0.00134899
0.00134817
0.00134726
0.00134628
0.00134524
0.00134413
0.00134298
0.00134178
0.00134053
0.00133925
0.00133794
0.0013366
0.00133525
0.00133387
0.00133249
0.0013311
0.00132971
0.00132833
0.00135356
0.00135349
0.00135331
0.00135302
0.00135262
0.0013521
0.00135149
0.00135079
0.00135
0.00134913
0.00134819
0.00134719
0.00134614
0.00134504
0.0013439
0.00134272
0.00134151
0.00134027
0.00133901
0.00133773
0.00133644
0.00133515
0.00133386
0.00133257
0.00133129
0.00135524
0.00135517
0.001355
0.00135472
0.00135433
0.00135384
0.00135325
0.00135257
0.00135181
0.00135098
0.00135008
0.00134912
0.00134812
0.00134707
0.00134599
0.00134487
0.00134372
0.00134255
0.00134137
0.00134017
0.00133896
0.00133775
0.00133655
0.00133535
0.00133416
0.0013569
0.00135684
0.00135668
0.00135641
0.00135604
0.00135556
0.00135499
0.00135434
0.00135361
0.00135281
0.00135195
0.00135103
0.00135007
0.00134907
0.00134804
0.00134698
0.0013459
0.00134479
0.00134368
0.00134255
0.00134142
0.00134029
0.00133917
0.00133805
0.00133696
0.00135854
0.00135848
0.00135833
0.00135808
0.00135772
0.00135726
0.00135672
0.00135609
0.00135538
0.00135461
0.00135379
0.00135291
0.00135199
0.00135104
0.00135006
0.00134905
0.00134802
0.00134698
0.00134593
0.00134487
0.00134381
0.00134276
0.00134171
0.00134068
0.00133966
0.00136015
0.0013601
0.00135996
0.00135972
0.00135937
0.00135894
0.00135841
0.0013578
0.00135713
0.00135639
0.00135559
0.00135475
0.00135388
0.00135297
0.00135203
0.00135107
0.0013501
0.00134912
0.00134813
0.00134713
0.00134614
0.00134515
0.00134417
0.00134321
0.00134227
0.00136174
0.0013617
0.00136156
0.00136133
0.001361
0.00136058
0.00136007
0.00135949
0.00135883
0.00135812
0.00135736
0.00135655
0.00135572
0.00135485
0.00135396
0.00135305
0.00135212
0.00135119
0.00135026
0.00134932
0.00134839
0.00134747
0.00134656
0.00134567
0.0013448
0.00136329
0.00136325
0.00136313
0.00136291
0.00136259
0.00136219
0.0013617
0.00136114
0.00136051
0.00135982
0.00135909
0.00135831
0.00135751
0.00135668
0.00135583
0.00135496
0.00135409
0.0013532
0.00135232
0.00135144
0.00135057
0.0013497
0.00134886
0.00134803
0.00134722
0.0013648
0.00136477
0.00136466
0.00136445
0.00136415
0.00136376
0.00136329
0.00136274
0.00136214
0.00136147
0.00136077
0.00136002
0.00135925
0.00135846
0.00135764
0.00135682
0.00135598
0.00135515
0.00135431
0.00135348
0.00135266
0.00135186
0.00135107
0.0013503
0.00134955
0.00136627
0.00136625
0.00136615
0.00136595
0.00136566
0.00136529
0.00136483
0.00136431
0.00136372
0.00136308
0.0013624
0.00136168
0.00136094
0.00136018
0.0013594
0.00135861
0.00135782
0.00135702
0.00135623
0.00135545
0.00135468
0.00135392
0.00135318
0.00135247
0.00135178
0.0013677
0.00136769
0.0013676
0.00136741
0.00136713
0.00136677
0.00136633
0.00136582
0.00136526
0.00136464
0.00136398
0.00136329
0.00136257
0.00136184
0.00136109
0.00136034
0.00135958
0.00135883
0.00135808
0.00135734
0.00135661
0.0013559
0.00135521
0.00135455
0.00135391
0.00136908
0.00136908
0.001369
0.00136882
0.00136856
0.00136821
0.00136779
0.00136729
0.00136674
0.00136614
0.0013655
0.00136483
0.00136414
0.00136343
0.00136272
0.00136199
0.00136127
0.00136055
0.00135984
0.00135914
0.00135846
0.00135779
0.00135714
0.00135652
0.00135593
0.00137041
0.00137042
0.00137035
0.00137019
0.00136994
0.0013696
0.00136919
0.00136871
0.00136817
0.00136759
0.00136697
0.00136632
0.00136565
0.00136496
0.00136427
0.00136358
0.00136289
0.0013622
0.00136152
0.00136086
0.00136021
0.00135958
0.00135898
0.0013584
0.00135785
0.00137168
0.00137171
0.00137165
0.00137151
0.00137127
0.00137094
0.00137054
0.00137008
0.00136955
0.00136898
0.00136837
0.00136774
0.00136709
0.00136643
0.00136576
0.00136509
0.00136442
0.00136376
0.00136312
0.00136249
0.00136187
0.00136128
0.00136072
0.00136018
0.00135967
0.00137291
0.00137294
0.00137291
0.00137277
0.00137255
0.00137223
0.00137184
0.00137139
0.00137087
0.00137031
0.00136972
0.0013691
0.00136846
0.00136782
0.00136717
0.00136652
0.00136588
0.00136525
0.00136463
0.00136402
0.00136344
0.00136288
0.00136235
0.00136185
0.00136138
0.00137408
0.00137413
0.00137412
0.001374
0.00137378
0.00137348
0.00137309
0.00137264
0.00137214
0.00137158
0.001371
0.00137039
0.00136977
0.00136914
0.0013685
0.00136787
0.00136725
0.00136664
0.00136605
0.00136547
0.00136492
0.00136439
0.00136389
0.00136341
0.00136298
0.0013752
0.00137528
0.00137528
0.00137517
0.00137496
0.00137467
0.00137429
0.00137384
0.00137334
0.00137279
0.00137221
0.00137161
0.001371
0.00137038
0.00136976
0.00136914
0.00136854
0.00136795
0.00136737
0.00136682
0.00136629
0.00136579
0.00136532
0.00136487
0.00136446
0.00137627
0.00137637
0.0013764
0.0013763
0.00137611
0.00137581
0.00137544
0.00137499
0.00137449
0.00137394
0.00137336
0.00137276
0.00137215
0.00137154
0.00137093
0.00137033
0.00136974
0.00136916
0.00136861
0.00136807
0.00136757
0.00136709
0.00136664
0.00136622
0.00136584
0.00137729
0.00137743
0.00137748
0.0013774
0.00137721
0.00137691
0.00137653
0.00137608
0.00137557
0.00137502
0.00137444
0.00137384
0.00137323
0.00137262
0.00137202
0.00137142
0.00137084
0.00137028
0.00136974
0.00136923
0.00136874
0.00136828
0.00136786
0.00136746
0.00136711
0.00137828
0.00137845
0.00137853
0.00137847
0.00137827
0.00137797
0.00137758
0.00137712
0.00137659
0.00137603
0.00137544
0.00137484
0.00137422
0.00137362
0.00137302
0.00137243
0.00137186
0.00137131
0.00137078
0.00137028
0.00136981
0.00136937
0.00136897
0.00136859
0.00136826
0.00137924
0.00137946
0.00137957
0.00137951
0.00137931
0.001379
0.00137858
0.0013781
0.00137755
0.00137697
0.00137637
0.00137575
0.00137514
0.00137452
0.00137392
0.00137334
0.00137278
0.00137224
0.00137172
0.00137124
0.00137078
0.00137035
0.00136996
0.00136961
0.00136929
0.00138019
0.00138047
0.00138061
0.00138056
0.00138034
0.00137999
0.00137954
0.00137902
0.00137845
0.00137784
0.00137722
0.00137658
0.00137596
0.00137534
0.00137474
0.00137416
0.0013736
0.00137306
0.00137256
0.00137208
0.00137164
0.00137123
0.00137085
0.00137051
0.00137021
0.00138117
0.00138151
0.00138169
0.00138161
0.00138135
0.00138095
0.00138045
0.00137988
0.00137927
0.00137863
0.00137798
0.00137733
0.00137669
0.00137606
0.00137546
0.00137487
0.00137432
0.00137379
0.00137329
0.00137282
0.00137239
0.00137199
0.00137163
0.00137131
0.00137102
0.00138224
0.00138264
0.00138284
0.00138271
0.00138237
0.00138189
0.00138131
0.00138068
0.00138001
0.00137933
0.00137865
0.00137797
0.00137732
0.00137668
0.00137607
0.00137549
0.00137493
0.00137441
0.00137392
0.00137346
0.00137303
0.00137265
0.00137229
0.00137198
0.00137171
0.00138351
0.00138395
0.00138411
0.00138387
0.0013834
0.00138279
0.00138211
0.00138139
0.00138066
0.00137993
0.00137922
0.00137852
0.00137784
0.0013772
0.00137658
0.001376
0.00137544
0.00137492
0.00137444
0.00137398
0.00137357
0.00137319
0.00137285
0.00137254
0.00137228
0.00138518
0.00138557
0.00138559
0.00138513
0.00138443
0.00138365
0.00138283
0.00138201
0.00138121
0.00138043
0.00137967
0.00137895
0.00137826
0.00137761
0.00137699
0.0013764
0.00137585
0.00137533
0.00137485
0.0013744
0.00137399
0.00137362
0.00137329
0.00137299
0.00137274
0.00138762
0.00138768
0.00138733
0.00138647
0.00138545
0.00138442
0.00138344
0.0013825
0.00138162
0.00138079
0.00138
0.00137926
0.00137856
0.0013779
0.00137728
0.00137669
0.00137614
0.00137563
0.00137515
0.00137471
0.00137431
0.00137394
0.00137362
0.00137333
0.00137309
0.00139174
0.00139071
0.0013894
0.00138785
0.00138636
0.00138504
0.00138387
0.00138282
0.00138188
0.001381
0.0013802
0.00137944
0.00137874
0.00137808
0.00137746
0.00137687
0.00137633
0.00137582
0.00137535
0.00137492
0.00137452
0.00137416
0.00137384
0.00137356
0.00137331
0.00140075
0.00139556
0.00139173
0.00138904
0.00138699
0.00138536
0.00138403
0.00138291
0.00138193
0.00138104
0.00138023
0.00137948
0.00137879
0.00137813
0.00137752
0.00137694
0.00137641
0.0013759
0.00137544
0.00137501
0.00137462
0.00137426
0.00137395
0.00137367
0.00137343
0.00141863
0.00140208
0.00139383
0.00138982
0.00138723
0.00138537
0.00138395
0.00138281
0.00138183
0.00138096
0.00138016
0.00137943
0.00137875
0.0013781
0.0013775
0.00137693
0.0013764
0.00137591
0.00137545
0.00137503
0.00137464
0.00137429
0.00137397
0.0013737
0.00137346
-0.195343
-0.192248
-0.185796
-0.175502
-0.162384
-0.147539
-0.131617
-0.115259
-0.099075
-0.0835224
-0.0690276
-0.0561406
-0.045176
-0.0360747
-0.0286763
-0.0227851
-0.0181918
-0.0147246
-0.0121856
-0.0103535
-0.00903685
-0.00809347
-0.00742711
-0.00695767
-0.00665115
-0.169932
-0.163154
-0.150803
-0.134127
-0.116152
-0.0986937
-0.0826623
-0.0684084
-0.0560843
-0.0455627
-0.0367492
-0.0295478
-0.0236905
-0.0190268
-0.0154511
-0.0127854
-0.0108113
-0.00934469
-0.00827283
-0.00749599
-0.00692769
-0.00650679
-0.0061982
-0.0059769
-0.00582831
-0.127934
-0.119947
-0.107513
-0.0920594
-0.0763507
-0.0624369
-0.050692
-0.0405978
-0.0320603
-0.0253507
-0.0203945
-0.0166983
-0.0138064
-0.0115073
-0.00971118
-0.00834637
-0.00737548
-0.00668081
-0.00617792
-0.0058134
-0.00554617
-0.00534841
-0.00520918
-0.0051217
-0.0050683
-0.0906164
-0.0823723
-0.0699974
-0.0562013
-0.0442113
-0.034941
-0.0278256
-0.0221204
-0.0176376
-0.014301
-0.0118094
-0.00994503
-0.00856619
-0.00761078
-0.00688018
-0.006299
-0.00582958
-0.00544873
-0.00514367
-0.00490315
-0.00471849
-0.00458377
-0.00449707
-0.00446022
-0.0044531
-0.0570756
-0.0491869
-0.0395952
-0.03041
-0.0230569
-0.0176334
-0.0138877
-0.0113075
-0.00953144
-0.00828846
-0.00742061
-0.00679922
-0.0063273
-0.00594931
-0.00561198
-0.00528331
-0.00498021
-0.00470729
-0.00446838
-0.00426759
-0.00410832
-0.00399381
-0.00392609
-0.00390913
-0.00392386
-0.0365157
-0.0295457
-0.0219313
-0.015183
-0.0103424
-0.00749103
-0.00596545
-0.00525974
-0.00498849
-0.00490602
-0.00488413
-0.00485587
-0.00479347
-0.00469764
-0.00456892
-0.00440881
-0.00421606
-0.00401711
-0.00383827
-0.00368152
-0.00355651
-0.00346905
-0.00342413
-0.00342229
-0.00344767
-0.0220666
-0.0165026
-0.0104816
-0.00583954
-0.00296568
-0.0015508
-0.00129787
-0.00155822
-0.00203192
-0.00253997
-0.00297502
-0.00329491
-0.00350277
-0.00361199
-0.00364045
-0.00360607
-0.00352636
-0.00341579
-0.00328908
-0.00317365
-0.0030862
-0.00302599
-0.00299747
-0.00300081
-0.0030263
-0.0112726
-0.00736439
-0.00303348
0.000103406
0.00172648
0.0021099
0.00169351
0.000857722
-1.29441e-05
-0.00082587
-0.00151414