/*--------------------------------*- C++ -*----------------------------------*\
  =========                 |
  \\      /  F ield         | OpenFOAM: The Open Source CFD Toolbox
   \\    /   O peration     | Website:  https://openfoam.org
    \\  /    A nd           | Version:  13
     \\/     M anipulation  |
\*---------------------------------------------------------------------------*/
FoamFile
{
    format      ascii;
    class       surfaceScalarField;
    location    "5";
    object      phi;
}
// * * * * * * * * * * * * * * * * * * * * * * * * * * * * * * * * * * * * * //

dimensions      [0 3 -1 0 0 0 0];

internalField   nonuniform List<scalar> 
12590
(
-1.21112e-10
-1.17808e-09
-2.88436e-09
-2.61265e-10
-4.21079e-09
1.16823e-09
-9.52268e-09
2.17445e-09
-1.2428e-08
3.38101e-09
-1.93021e-08
3.96914e-09
-2.354e-08
4.73347e-09
-3.16364e-08
5.03979e-09
-3.66577e-08
5.59901e-09
-4.5193e-08
5.44879e-09
-5.05701e-08
5.4345e-09
-5.81907e-08
4.75595e-09
-6.21516e-08
3.93709e-09
-6.71744e-08
2.39027e-09
-6.8009e-08
7.74208e-10
-6.87356e-08
-1.53949e-09
-6.46245e-08
-4.10891e-09
-5.90824e-08
-7.43327e-09
-4.81899e-08
-1.10158e-08
-3.51729e-08
-1.51038e-08
-1.73642e-08
-1.82445e-08
-1.68678e-09
-1.92006e-08
1.06674e-08
-1.36436e-08
9.04514e-09
-2.51955e-09
8.14401e-09
-1.01496e-08
7.98479e-09
-2.39744e-08
1.13779e-08
-3.61274e-08
1.26669e-08
-4.88474e-08
1.34114e-08
-5.9751e-08
1.38473e-08
-7.1172e-08
1.38931e-08
-8.0476e-08
1.38695e-08
-9.02077e-08
1.33853e-08
-9.78902e-08
1.26317e-08
-1.05375e-07
1.14862e-08
-1.10436e-07
9.87171e-09
-1.14872e-07
7.51451e-09
-1.16277e-07
4.57557e-09
-1.16299e-07
8.66078e-10
-1.12957e-07
-3.2907e-09
-1.07744e-07
-8.12031e-09
-9.8847e-08
-1.36391e-08
-8.74761e-08
-2.00473e-08
-7.23514e-08
-2.71102e-08
-5.45322e-08
-3.42965e-08
-3.40488e-08
-4.03015e-08
-1.25586e-08
-4.15806e-08
2.43625e-09
-3.40665e-08
7.91337e-09
-1.04149e-08
1.45153e-08
-1.44032e-08
2.11311e-08
-3.14745e-08
2.73162e-08
-4.7122e-08
2.76483e-08
-6.21543e-08
2.72899e-08
-7.51662e-08
2.65805e-08
-8.7571e-08
2.55082e-08
-9.82364e-08
2.40024e-08
-1.08052e-07
2.21724e-08
-1.15591e-07
1.98939e-08
-1.22282e-07
1.68746e-08
-1.26418e-07
1.32253e-08
-1.2894e-07
8.7684e-09
-1.28487e-07
3.32151e-09
-1.25968e-07
-2.94124e-09
-1.2032e-07
-9.65639e-09
-1.12661e-07
-1.69306e-08
-1.02109e-07
-2.48696e-08
-8.98022e-08
-3.36036e-08
-7.48083e-08
-4.29587e-08
-5.82796e-08
-5.24993e-08
-3.92673e-08
-6.02847e-08
-2.11716e-08
-6.31682e-08
-2.37005e-09
-5.25237e-08
4.80522e-09
-2.32639e-08
1.86461e-08
-1.55046e-08
3.61416e-08
-3.40713e-08
4.4406e-08
-5.10055e-08
4.41393e-08
-6.71706e-08
4.2681e-08
-8.15545e-08
4.0598e-08
-9.50565e-08
3.80803e-08
-1.06269e-07
3.5178e-08
-1.1642e-07
3.15026e-08
-1.24345e-07
2.70865e-08
-1.30448e-07
2.20495e-08
-1.33886e-07
1.60775e-08
-1.35501e-07
9.10231e-09
-1.33731e-07
8.25024e-10
-1.29696e-07
-8.10685e-09
-1.22704e-07
-1.72698e-08
-1.1388e-07
-2.67466e-08
-1.02706e-07
-3.66009e-08
-9.01997e-08
-4.69519e-08
-7.60497e-08
-5.77863e-08
-6.06302e-08
-6.85434e-08
-4.43453e-08
-7.78036e-08
-2.532e-08
-8.10016e-08
-1.09713e-08
-7.28195e-08
2.78501e-09
-3.7312e-08
1.98222e-08
-1.67516e-08
5.17925e-08
-3.56435e-08
6.26259e-08
-5.37807e-08
6.17111e-08
-7.11485e-08
5.9172e-08
-8.66057e-08
5.58683e-08
-1.00865e-07
5.18605e-08
-1.13227e-07
4.69493e-08
-1.23835e-07
4.13109e-08
-1.317e-07
3.47786e-08
-1.37857e-07
2.7099e-08
-1.41091e-07
1.85186e-08
-1.42018e-07
9.04942e-09
-1.39435e-07
-2.4597e-09
-1.34352e-07
-1.41647e-08
-1.26402e-07
-2.57673e-08
-1.16625e-07
-3.72936e-08
-1.04817e-07
-4.87428e-08
-9.20915e-08
-6.02642e-08
-7.81861e-08
-7.19333e-08
-6.40423e-08
-8.36256e-08
-4.82573e-08
-9.36493e-08
-3.37982e-08
-9.9025e-08
-1.4843e-08
-8.93117e-08
-2.40085e-09
-5.51708e-08
1.69971e-08
-1.74169e-08
6.8892e-08
-3.78108e-08
8.16711e-08
-5.70064e-08
8.05153e-08
-7.54113e-08
7.69717e-08
-9.21414e-08
7.219e-08
-1.07574e-07
6.64671e-08
-1.20453e-07
5.98247e-08
-1.31615e-07
5.17939e-08
-1.40213e-07
4.25195e-08
-1.46178e-07
3.23458e-08
-1.4917e-07
2.09547e-08
-1.4978e-07
8.52881e-09
-1.46423e-07
-6.47202e-09
-1.40301e-07
-2.11542e-08
-1.31292e-07
-3.53062e-08
-1.2039e-07
-4.88368e-08
-1.07778e-07
-6.16782e-08
-9.4586e-08
-7.396e-08
-8.10601e-08
-8.60512e-08
-6.73137e-08
-9.78561e-08
-5.373e-08
-1.08644e-07
-3.73103e-08
-1.14204e-07
-2.40347e-08
-1.09007e-07
-5.43674e-09
-7.30377e-08
9.67093e-09
-1.89731e-08
8.67939e-08
-4.01344e-08
1.02434e-07
-6.08527e-08
1.00664e-07
-8.06256e-08
9.59887e-08
-9.84819e-08
8.98504e-08
-1.14739e-07
8.23717e-08
-1.28933e-07
7.32943e-08
-1.40742e-07
6.2894e-08
-1.49399e-07
5.10619e-08
-1.55733e-07
3.76363e-08
-1.58718e-07
2.30787e-08
-1.58468e-07
7.45177e-09
-1.5418e-07
-1.14647e-08
-1.46731e-07
-2.94442e-08
-1.36286e-07
-4.6293e-08
-1.24028e-07
-6.17793e-08
-1.10436e-07
-7.56939e-08
-9.69191e-08
-8.82784e-08
-8.34175e-08
-1.00058e-07
-7.07835e-08
-1.11696e-07
-5.74518e-08
-1.22386e-07
-4.54607e-08
-1.29981e-07
-2.70218e-08
-1.23956e-07
-1.13922e-08
-9.43888e-08
-1.49606e-09
-2.0049e-08
1.06753e-07
-4.33005e-08
1.24482e-07
-6.53858e-08
1.22463e-07
-8.64481e-08
1.16606e-07
-1.05771e-07
1.08749e-07
-1.23417e-07
9.92797e-08
-1.38255e-07
8.81689e-08
-1.50824e-07
7.48716e-08
-1.6042e-07
5.96722e-08
-1.66548e-07
4.31897e-08
-1.69156e-07
2.5109e-08
-1.68114e-07
5.27849e-09
-1.62397e-07
-1.79071e-08
-1.5316e-07
-3.95514e-08
-1.40851e-07
-5.92179e-08
-1.26964e-07
-7.64268e-08
-1.1239e-07
-9.08065e-08
-9.85066e-08
-1.02819e-07
-8.55716e-08
-1.1359e-07
-7.34589e-08
-1.2413e-07
-6.22226e-08
-1.34756e-07
-4.77552e-08
-1.42329e-07
-3.58313e-08
-1.42419e-07
-1.41394e-08
-1.13729e-07
-1.71791e-08
-2.21886e-08
1.28059e-07
-4.66236e-08
1.48923e-07
-7.06484e-08
1.4604e-07
-9.34155e-08
1.38817e-07
-1.14159e-07
1.29367e-07
-1.32925e-07
1.17828e-07
-1.49379e-07
1.03825e-07
-1.62805e-07
8.76635e-08
-1.72437e-07
6.92603e-08
-1.78891e-07
4.85813e-08
-1.81185e-07
2.64154e-08
-1.78668e-07
1.92049e-09
-1.71231e-07
-2.6223e-08
-1.59778e-07
-5.19578e-08
-1.45202e-07
-7.45522e-08
-1.29362e-07
-9.31013e-08
-1.13643e-07
-1.07134e-07
-9.94983e-08
-1.17666e-07
-8.6882e-08
-1.26671e-07
-7.58719e-08
-1.3601e-07
-6.46442e-08
-1.46005e-07
-5.4817e-08
-1.55824e-07
-3.74605e-08
-1.55558e-07
-2.03181e-08
-1.35919e-07
-3.71798e-08
-2.38524e-08
1.5216e-07
-5.09905e-08
1.75069e-07
-7.67952e-08
1.71752e-07
-1.0129e-07
1.63057e-07
-1.23889e-07
1.51587e-07
-1.44426e-07
1.3772e-07
-1.61797e-07
1.21272e-07
-1.76211e-07
1.01502e-07
-1.86894e-07
7.87877e-08
-1.92941e-07
5.40954e-08
-1.94563e-07
2.73161e-08
-1.90797e-07
-3.17596e-09
-1.81304e-07
-3.67132e-08
-1.67386e-07
-6.69686e-08
-1.50305e-07
-9.26135e-08
-1.32269e-07
-1.12135e-07
-1.1517e-07
-1.25109e-07
-1.00404e-07
-1.33362e-07
-8.79997e-08
-1.40112e-07
-7.71082e-08
-1.47701e-07
-6.75059e-08
-1.57254e-07
-5.51472e-08
-1.66905e-07
-4.44594e-08
-1.72768e-07
-2.32503e-08
-1.54967e-07
-6.19162e-08
-2.66944e-08
1.78121e-07
-5.56024e-08
2.04309e-07
-8.39115e-08
1.99697e-07
-1.10583e-07
1.89304e-07
-1.3503e-07
1.75914e-07
-1.57104e-07
1.59593e-07
-1.76486e-07
1.39693e-07
-1.92023e-07
1.16339e-07
-2.02772e-07
8.94454e-08
-2.09209e-07
5.92409e-08
-2.10479e-07
2.73128e-08
-2.04963e-07
-9.78131e-09
-1.93497e-07
-4.9428e-08
-1.77171e-07
-8.46083e-08
-1.57578e-07
-1.13434e-07
-1.37198e-07
-1.33831e-07
-1.18102e-07
-1.45474e-07
-1.01839e-07
-1.51109e-07
-8.82596e-08
-1.55104e-07
-7.69534e-08
-1.60797e-07
-6.64668e-08
-1.68865e-07
-5.76853e-08
-1.79744e-07
-4.28879e-08
-1.8429e-07
-2.74756e-08
-1.75024e-07
-8.90855e-08
-2.90994e-08
2.07583e-07
-6.14518e-08
2.35673e-07
-9.20639e-08
2.30213e-07
-1.20957e-07
2.17909e-07
-1.47715e-07
2.02149e-07
-1.72079e-07
1.83176e-07
-1.92857e-07
1.60374e-07
-2.09824e-07
1.32512e-07
-2.22023e-07
1.0012e-07
-2.28196e-07
6.47523e-08
-2.2901e-07
2.70833e-08
-2.22313e-07
-1.8131e-08
-2.08917e-07
-6.42009e-08
-1.9037e-07
-1.04663e-07
-1.68276e-07
-1.37022e-07
-1.4502e-07
-1.58719e-07
-1.22729e-07
-1.69418e-07
-1.03237e-07
-1.72403e-07
-8.70827e-08
-1.73137e-07
-7.37974e-08
-1.75698e-07
-6.34342e-08
-1.81423e-07
-5.25461e-08
-1.90168e-07
-4.45427e-08
-1.9812e-07
-2.65926e-08
-1.91267e-07
-1.16779e-07
-3.28353e-08
2.39431e-07
-6.76501e-08
2.7068e-07
-1.01299e-07
2.63314e-07
-1.32845e-07
2.48887e-07
-1.6204e-07
2.31003e-07
-1.88679e-07
2.09407e-07
-2.12296e-07
1.82688e-07
-2.31128e-07
1.50435e-07
-2.43886e-07
1.12729e-07
-2.5093e-07
7.03565e-08
-2.51656e-07
2.64491e-08
-2.4358e-07
-2.74446e-08
-2.2857e-07
-8.05991e-08
-2.07754e-07
-1.27044e-07
-1.82553e-07
-1.63788e-07
-1.55211e-07
-1.87848e-07
-1.28004e-07
-1.98446e-07
-1.03423e-07
-1.99003e-07
-8.27382e-08
-1.95822e-07
-6.61753e-08
-1.94452e-07
-5.32646e-08
-1.95925e-07
-4.50249e-08
-2.02385e-07
-3.53854e-08
-2.05823e-07
-2.43038e-08
-2.05982e-07
-1.40924e-07
-3.62089e-08
2.75988e-07
-7.50863e-08
3.08805e-07
-1.11651e-07
2.9981e-07
-1.46065e-07
2.83223e-07
-1.78469e-07
2.6302e-07
-2.08575e-07
2.38859e-07
-2.34733e-07
2.08819e-07
-2.55878e-07
1.71013e-07
-2.70778e-07
1.26319e-07
-2.78102e-07
7.72523e-08
-2.78902e-07
2.63974e-08
-2.69853e-07
-3.74801e-08
-2.52772e-07
-9.86821e-08
-2.2872e-07
-1.52168e-07
-1.99164e-07
-1.94566e-07
-1.6631e-07
-2.22069e-07
-1.32818e-07
-2.3347e-07
-1.01821e-07
-2.31629e-07
-7.55509e-08
-2.24028e-07
-5.40338e-08
-2.17613e-07
-3.84581e-08
-2.14058e-07
-2.67042e-08
-2.1461e-07
-2.19192e-08
-2.15359e-07
-1.51297e-08
-2.11577e-07
-1.57031e-07
-4.06979e-08
3.17431e-07
-8.30933e-08
3.52574e-07
-1.23223e-07
3.40983e-07
-1.6134e-07
3.22079e-07
-1.97582e-07
3.00153e-07
-2.31686e-07
2.7301e-07
-2.6182e-07
2.38417e-07
-2.85868e-07
1.94171e-07
-3.02324e-07
1.42773e-07
-3.11273e-07
8.52085e-08
-3.11856e-07
2.69936e-08
-3.00865e-07
-4.87757e-08
-2.80213e-07
-1.19038e-07
-2.51476e-07
-1.80996e-07
-2.16245e-07
-2.2965e-07
-1.76834e-07
-2.61796e-07
-1.36069e-07
-2.74234e-07
-9.78837e-08
-2.70439e-07
-6.47147e-08
-2.57453e-07
-3.74369e-08
-2.46051e-07
-1.68509e-08
-2.34993e-07
-5.3152e-09
-2.28789e-07
-4.62252e-10
-2.1809e-07
-4.54794e-09
-2.1035e-07
-1.6064e-07
-4.55229e-08
3.62251e-07
-9.24682e-08
3.99085e-07
-1.36526e-07
3.85106e-07
-1.79049e-07
3.64464e-07
-2.21415e-07
3.39887e-07
-2.60157e-07
3.11527e-07
-2.94912e-07
2.70986e-07
-3.21341e-07
2.21048e-07
-3.41295e-07
1.60181e-07
-3.50185e-07
9.60178e-08
-3.50121e-07
2.54794e-08
-3.34239e-07
-6.15419e-08
-3.09179e-07
-1.44112e-07
-2.73629e-07
-2.13438e-07
-2.32218e-07
-2.70509e-07
-1.84614e-07
-3.06262e-07
-1.36404e-07
-3.21669e-07
-8.92735e-08
-3.14357e-07
-4.85064e-08
-2.97679e-07
-1.38698e-08
-2.77758e-07
9.13312e-09
-2.5836e-07
2.29404e-08
-2.39756e-07
2.08956e-08
-2.18851e-07
1.24139e-08
-1.98195e-07
-1.48948e-07
-5.09043e-08
4.09193e-07
-1.02852e-07
4.45815e-07
-1.52368e-07
4.28373e-07
-2.0299e-07
4.05478e-07
-2.4932e-07
3.84306e-07
-2.96602e-07
3.49611e-07
-3.33211e-07
3.06019e-07
-3.657e-07
2.45244e-07
-3.83751e-07
1.79686e-07
-3.96891e-07
1.01762e-07
-3.88092e-07
2.10588e-08
-3.7056e-07
-8.43499e-08
-3.35008e-07
-1.7266e-07
-2.94924e-07
-2.54725e-07
-2.42264e-07
-3.15373e-07
-1.88912e-07
-3.59322e-07
-1.28798e-07
-3.73697e-07
-7.48187e-08
-3.67536e-07
-2.18151e-08
-3.42805e-07
1.70388e-08
-3.16392e-07
4.68402e-08
-2.81996e-07
5.77985e-08
-2.52135e-07
5.3956e-08
-2.08419e-07
2.82546e-08
-1.75322e-07
-1.16825e-07
-5.89289e-08
4.53966e-07
-1.16692e-07
4.91702e-07
-1.74475e-07
4.72512e-07
-2.2806e-07
4.54243e-07
-2.88138e-07
4.24958e-07
-3.36459e-07
3.90439e-07
-3.8141e-07
3.35063e-07
-4.11341e-07
2.68357e-07
-4.35382e-07
1.88117e-07
-4.41065e-07
1.03339e-07
-4.32544e-07
-2.34097e-09
-3.99496e-07
-1.1119e-07
-3.61595e-07
-2.1748e-07
-3.05974e-07
-3.02921e-07
-2.48713e-07
-3.75513e-07
-1.80148e-07
-4.19403e-07
-1.15227e-07
-4.40076e-07
-4.5371e-08
-4.28773e-07
1.24719e-08
-4.0229e-07
6.40665e-08
-3.60785e-07
9.66091e-08
-3.16948e-07
1.17376e-07
-2.66344e-07
1.05869e-07
-2.02214e-07
7.23357e-08
-1.33887e-07
-4.77746e-08
-6.71254e-08
5.1405e-07
-1.3403e-07
5.49464e-07
-1.97211e-07
5.3042e-07
-2.67509e-07
5.05049e-07
-3.28173e-07
4.78821e-07
-3.8663e-07
4.30336e-07
-4.32846e-07
3.65163e-07
-4.68068e-07
2.85148e-07
-4.87595e-07
1.93805e-07
-4.94558e-07
9.19057e-08
-4.68967e-07
-2.95199e-08
-4.34118e-07
-1.61364e-07
-3.77734e-07
-2.72537e-07
-3.14965e-07
-3.73018e-07
-2.3991e-07
-4.49383e-07
-1.6384e-07
-5.01427e-07
-8.25877e-08
-5.19975e-07
-6.58273e-09
-5.10529e-07
6.55842e-08
-4.72913e-07
1.22655e-07
-4.23326e-07
1.70773e-07
-3.63301e-07
1.9607e-07
-2.98637e-07
2.05558e-07
-2.08616e-07
1.92812e-07
-1.30208e-07
1.34456e-07
-7.87883e-08
5.85634e-07
-1.55293e-07
6.21852e-07
-2.34292e-07
6.00321e-07
-3.08231e-07
5.7818e-07
-3.82668e-07
5.36843e-07
-4.46124e-07
4.79585e-07
-4.97012e-07
4.02193e-07
-5.34363e-07
3.07539e-07
-5.53085e-07
1.98118e-07
-5.48628e-07
7.88777e-08
-5.19485e-07
-7.5683e-08
-4.63424e-07
-2.15641e-07
-3.9666e-07
-3.49281e-07
-3.15036e-07
-4.60267e-07
-2.25766e-07
-5.46317e-07
-1.31245e-07
-6.00872e-07
-3.74874e-08
-6.20981e-07
5.20107e-08
-6.04474e-07
1.33026e-07
-5.60632e-07
2.07081e-07
-5.00842e-07
2.68701e-07
-4.31382e-07
3.10606e-07
-3.4328e-07
3.1184e-07
-2.19879e-07
2.33299e-07
-7.30292e-08
3.66614e-07
-8.14024e-08
6.67545e-07
-1.63161e-07
7.02093e-07
-2.44211e-07
6.81516e-07
-3.28432e-07
6.51164e-07
-4.03928e-07
6.10022e-07
-4.75828e-07
5.41891e-07
-5.3883e-07
4.55025e-07
-5.89182e-07
3.48101e-07
-6.21086e-07
2.22365e-07
-6.33699e-07
8.09942e-08
-6.13119e-07
-9.17557e-08
-5.78606e-07
-2.61961e-07
-5.21615e-07
-4.09013e-07
-4.50067e-07
-5.35996e-07
-3.66042e-07
-6.34253e-07
-2.72953e-07
-6.98157e-07
-1.74492e-07
-7.23608e-07
-7.35678e-08
-7.1015e-07
3.06829e-08
-6.689e-07
1.39003e-07
-6.13146e-07
2.49795e-07
-5.45908e-07
3.6526e-07
-4.63974e-07
4.9222e-07
-3.59933e-07
6.82127e-07
-2.63202e-07
-5.82684e-08
1.09756e-06
-9.48054e-08
7.60204e-07
-1.90014e-07
7.96238e-07
-2.87468e-07
7.74341e-07
-3.77686e-07
7.46776e-07
-4.69302e-07
6.91984e-07
-5.49978e-07
6.19705e-07
-6.22984e-07
5.21791e-07
-6.79312e-07
4.00237e-07
-7.15634e-07
2.53716e-07
-7.22026e-07
8.86847e-08
-7.0516e-07
-1.19664e-07
-6.55659e-07
-3.05503e-07
-5.8907e-07
-4.79185e-07
-5.03427e-07
-6.23981e-07
-4.04003e-07
-7.35833e-07
-2.94758e-07
-8.09424e-07
-1.79283e-07
-8.41178e-07
-5.89695e-08
-8.32427e-07
6.51953e-08
-7.94875e-07
1.93454e-07
-7.43109e-07
3.25615e-07
-6.80378e-07
4.64414e-07
-6.08608e-07
6.2635e-07
-5.21714e-07
7.93599e-07
-4.44859e-07
-3.37095e-07
1.07584e-06
-1.08636e-07
8.70226e-07
-2.19873e-07
9.06928e-07
-3.28305e-07
8.86507e-07
-4.39119e-07
8.49614e-07
-5.38853e-07
7.95919e-07
-6.35156e-07
7.12814e-07
-7.18568e-07
6.03094e-07
-7.83196e-07
4.63077e-07
-8.21901e-07
2.91681e-07
-8.3081e-07
9.32618e-08
-8.0014e-07
-1.40975e-07
-7.46483e-07
-3.6739e-07
-6.62543e-07
-5.62411e-07
-5.59434e-07
-7.2775e-07
-4.41611e-07
-8.5456e-07
-3.1409e-07
-9.37924e-07
-1.80715e-07
-9.7553e-07
-4.27831e-08
-9.7107e-07
9.8466e-08
-9.36422e-07
2.42667e-07
-8.87827e-07
3.90453e-07
-8.29632e-07
5.45288e-07
-7.64354e-07
7.08711e-07
-6.95383e-07
8.91909e-07
-6.22837e-07
-5.58318e-07
1.10896e-06
-1.23403e-07
9.93037e-07
-2.48711e-07
1.03307e-06
-3.76267e-07
1.01116e-06
-4.97153e-07
9.76625e-07
-6.16971e-07
9.13004e-07
-7.27712e-07
8.23693e-07
-8.241e-07
7.00931e-07
-8.991e-07
5.38529e-07
-9.43677e-07
3.37514e-07
-9.48137e-07
1.03017e-07
-9.18302e-07
-1.7975e-07
-8.44712e-07
-4.33412e-07
-7.45282e-07
-6.63618e-07
-6.21857e-07
-8.52108e-07
-4.829e-07
-9.94332e-07
-3.35024e-07
-1.08653e-06
-1.82685e-07
-1.12829e-06
-2.78141e-08
-1.12602e-06
1.28398e-07
-1.09247e-06
2.85823e-07
-1.04523e-06
4.45211e-07
-9.89641e-07
6.06214e-07
-9.29439e-07
7.78527e-07
-8.63856e-07
9.52442e-07
-8.06315e-07
-7.46145e-07
1.14439e-06
-1.36368e-07
1.13083e-06
-2.77514e-07
1.17464e-06
-4.18098e-07
1.15524e-06
-5.59823e-07
1.11573e-06
-6.95267e-07
1.05264e-06
-8.24244e-07
9.55269e-07
-9.38068e-07
8.16997e-07
-1.02585e-06
6.29309e-07
-1.07665e-06
3.91489e-07
-1.08422e-06
1.08967e-07
-1.03799e-06
-2.15297e-07
-9.55584e-07
-5.22284e-07
-8.33567e-07
-7.84578e-07
-6.86803e-07
-9.99209e-07
-5.24245e-07
-1.15758e-06
-3.54307e-07
-1.25717e-06
-1.82576e-07
-1.30055e-06
-1.15014e-08
-1.29709e-06
1.58159e-07
-1.26176e-06
3.26428e-07
-1.21331e-06
4.93447e-07
-1.15745e-06
6.62317e-07
-1.09735e-06
8.28867e-07
-1.03844e-06
1.00462e-06
-9.7519e-07
-9.23207e-07
1.17792e-06
-1.46968e-07
1.27837e-06
-3.00519e-07
1.32949e-06
-4.58278e-07
1.31216e-06
-6.14332e-07
1.27785e-06
-7.7188e-07
1.2116e-06
-9.21441e-07
1.10936e-06
-1.05498e-06
9.54602e-07
-1.15805e-06
7.37038e-07
-1.21748e-06
4.55129e-07
-1.21954e-06
1.18883e-07
-1.17033e-06
-2.71027e-07
-1.06451e-06
-6.21399e-07
-9.21724e-07
-9.28325e-07
-7.49502e-07
-1.1722e-06
-5.61316e-07
-1.34672e-06
-3.68269e-07
-1.45107e-06
-1.77116e-07
-1.49217e-06
9.19705e-09
-1.48344e-06
1.90711e-07
-1.44295e-06
3.67712e-07
-1.39015e-06
5.41166e-07
-1.33099e-06
7.1036e-07
-1.26968e-06
8.82844e-07
-1.2056e-06
1.04864e-06
-1.14912e-06
-1.0895e-06
1.21908e-06
-1.52419e-07
1.43172e-06
-3.16483e-07
1.494e-06
-4.84945e-07
1.48467e-06
-6.60661e-07
1.45422e-06
-8.37196e-07
1.39375e-06
-1.0099e-06
1.28678e-06
-1.16418e-06
1.11428e-06
-1.28403e-06
8.62204e-07
-1.35021e-06
5.26787e-07
-1.35206e-06
1.21206e-07
-1.28442e-06
-3.28989e-07
-1.16548e-06
-7.43478e-07
-9.9892e-07
-1.09413e-06
-8.0102e-07
-1.37052e-06
-5.86902e-07
-1.56169e-06
-3.7108e-07
-1.66783e-06
-1.61822e-07
-1.70207e-06
3.80633e-08
-1.68339e-06
2.295e-07
-1.63411e-06
4.13092e-07
-1.57355e-06
5.89878e-07
-1.50817e-06
7.63127e-07
-1.44143e-06
9.28715e-07
-1.378e-06
1.09808e-06
-1.3112e-06
-1.25463e-06
1.25975e-06
-1.50653e-07
1.58273e-06
-3.18238e-07
1.66327e-06
-4.96856e-07
1.66412e-06
-6.85061e-07
1.64705e-06
-8.8068e-07
1.59391e-06
-1.07182e-06
1.48296e-06
-1.24152e-06
1.2895e-06
-1.37147e-06
9.97822e-07
-1.44219e-06
6.03e-07
-1.43728e-06
1.24855e-07
-1.365e-06
-4.03331e-07
-1.22929e-06
-8.74933e-07
-1.04693e-06
-1.27608e-06
-8.28041e-07
-1.58991e-06
-5.91026e-07
-1.79981e-06
-3.5535e-07
-1.90457e-06
-1.31039e-07
-1.92707e-06
7.94328e-08
-1.89406e-06
2.78029e-07
-1.83255e-06
4.65564e-07
-1.76092e-06
6.4424e-07
-1.68689e-06
8.14477e-07
-1.61428e-06
9.83869e-07
-1.54174e-06
1.14343e-06
-1.47812e-06
-1.41178e-06
1.30476e-06
-1.37943e-07
1.72079e-06
-3.02038e-07
1.8277e-06
-4.80352e-07
1.84519e-06
-6.74464e-07
1.84462e-06
-8.77716e-07
1.80121e-06
-1.07357e-06
1.68401e-06
-1.24178e-06
1.46311e-06
-1.36216e-06
1.1236e-06
-1.42992e-06
6.77081e-07
-1.42978e-06
1.27111e-07
-1.35169e-06
-4.75339e-07
-1.22015e-06
-1.00565e-06
-1.03808e-06
-1.45792e-06
-8.11467e-07
-1.81713e-06
-5.60403e-07
-2.05196e-06
-3.12191e-07
-2.15395e-06
-7.86851e-08
-2.16136e-06
1.38071e-07
-2.11105e-06
3.39653e-07
-2.03404e-06
5.27621e-07
-1.9488e-06
7.04537e-07
-1.86423e-06
8.74808e-07
-1.78284e-06
1.03508e-06
-1.70826e-06
1.1971e-06
-1.63283e-06
-1.56842e-06
1.35063e-06
-1.10976e-07
1.83044e-06
-2.58889e-07
1.97609e-06
-4.24077e-07
2.01189e-06
-6.06706e-07
2.03001e-06
-7.95742e-07
1.99454e-06
-9.715e-07
1.86392e-06
-1.11231e-06
1.60802e-06
-1.20598e-06
1.22203e-06
-1.24943e-06
7.24976e-07
-1.23909e-06
1.22777e-07
-1.18038e-06
-5.32527e-07
-1.08215e-06
-1.10291e-06
-9.35049e-07
-1.6045e-06
-7.27813e-07
-2.02509e-06
-4.80258e-07
-2.30079e-06
-2.31294e-07
-2.40416e-06
2.34503e-09
-2.39588e-06
2.18188e-07
-2.32729e-06
4.16965e-07
-2.23287e-06
6.01132e-07
-2.13303e-06
7.74006e-07
-2.03712e-06
9.36848e-07
-1.94807e-06
1.09759e-06
-1.86341e-06
1.24832e-06
-1.79025e-06
-1.7167e-06
1.40067e-06
-6.64827e-08
1.89607e-06
-1.83389e-07
2.09267e-06
-3.16388e-07
2.14641e-06
-4.6393e-07
2.18056e-06
-6.11269e-07
2.14455e-06
-7.33863e-07
1.9895e-06
-8.07646e-07
1.68497e-06
-8.25401e-07
1.24338e-06
-8.18335e-07
7.22942e-07
-8.14323e-07
1.22567e-07
-7.93572e-07
-5.51531e-07
-7.67225e-07
-1.1277e-06
-7.03528e-07
-1.66901e-06
-5.56636e-07
-2.17334e-06
-3.39313e-07
-2.51977e-06
-1.07364e-07
-2.63767e-06
1.14333e-07
-2.61866e-06
3.20894e-07
-2.53441e-06
5.1103e-07
-2.42323e-06
6.86921e-07
-2.30907e-06
8.51472e-07
-2.20208e-06
1.00921e-06
-2.10422e-06
1.15763e-06
-2.01749e-06
1.30797e-06
-1.93367e-06
-1.86276e-06
1.45123e-06
-7.73574e-09
1.89937e-06
-7.44539e-08
2.15858e-06
-1.57064e-07
2.23008e-06
-2.49859e-07
2.27464e-06
-3.31163e-07
2.22753e-06
-3.81081e-07
2.04105e-06
-3.71196e-07
1.67702e-06
-2.8767e-07
1.16277e-06
-2.09846e-07
6.49032e-07
-1.89548e-07
1.0628e-07
-2.26522e-07
-5.12652e-07
-2.90342e-07
-1.0656e-06
-3.40526e-07
-1.62011e-06
-2.91807e-07
-2.22383e-06
-1.34424e-07
-2.67899e-06
6.09255e-08
-2.83462e-06
2.57945e-07
-2.81685e-06
4.46264e-07
-2.72344e-06
6.21657e-07
-2.59901e-06
7.84811e-07
-2.47247e-06
9.38399e-07
-2.35587e-06
1.08379e-06
-2.25183e-06
1.2284e-06
-2.15688e-06
1.36505e-06
-2.07651e-06
-1.99871e-06
1.50483e-06
6.70603e-08
1.83172e-06
6.16874e-08
2.16283e-06
4.02855e-08
2.25114e-06
2.10769e-08
2.29397e-06
1.34752e-08
2.23661e-06
3.2322e-08
2.02143e-06
9.44805e-08
1.61479e-06
1.93872e-07
1.06343e-06
2.59012e-07
5.85692e-07
2.93259e-07
7.30363e-08
2.84887e-07
-5.06326e-07
2.18619e-07
-1.00018e-06
9.61337e-08
-1.49977e-06
4.50788e-08
-2.17483e-06
1.19901e-07
-2.75576e-06
2.65545e-07
-2.98198e-06
4.287e-07
-2.98134e-06
5.91823e-07
-2.88747e-06
7.47177e-07
-2.75493e-06
8.93444e-07
-2.61916e-06
1.03217e-06
-2.49522e-06
1.16725e-06
-2.38549e-06
1.29604e-06
-2.29099e-06
1.42894e-06
-2.20295e-06
-2.12986e-06
1.55752e-06
1.50508e-07
1.67027e-06
2.16784e-07
2.09221e-06
2.64439e-07
2.20164e-06
3.17011e-07
2.24276e-06
3.64031e-07
2.18566e-06
4.15329e-07
1.96934e-06
4.6324e-07
1.56419e-06
4.9339e-07
1.03136e-06
5.24456e-07
5.52145e-07
5.76451e-07
1.92448e-08
6.1498e-07
-5.45692e-07
5.97855e-07
-9.85451e-07
5.00343e-07
-1.40443e-06
4.01185e-07
-2.07768e-06
4.0424e-07
-2.76065e-06
4.96976e-07
-3.07634e-06
6.20557e-07
-3.10625e-06
7.53631e-07
-3.02154e-06
8.84741e-07
-2.88671e-06
1.01067e-06
-2.74563e-06
1.13255e-06
-2.61743e-06
1.25081e-06
-2.50593e-06
1.37184e-06
-2.40721e-06
1.48861e-06
-2.32542e-06
-2.24886e-06
1.61114e-06
2.43812e-07
1.42238e-06
3.81458e-07
1.95022e-06
4.94936e-07
2.08714e-06
6.03097e-07
2.12942e-06
7.07425e-07
2.08207e-06
7.92799e-07
1.87938e-06
8.50367e-07
1.50212e-06
8.71811e-07
1.00573e-06
9.11804e-07
5.08775e-07
9.52194e-07
-2.37903e-08
9.69827e-07
-5.65356e-07
9.52541e-07
-9.70166e-07
8.68467e-07
-1.32214e-06
7.47412e-07
-1.95831e-06
7.00714e-07
-2.71551e-06
7.4428e-07
-3.12138e-06
8.26666e-07
-3.18995e-06
9.26873e-07
-3.1228e-06
1.03062e-06
-2.99126e-06
1.13349e-06
-2.84912e-06
1.23558e-06
-2.72022e-06
1.33947e-06
-2.60863e-06
1.44202e-06
-2.51468e-06
1.55211e-06
-2.42962e-06
-2.36075e-06
1.66157e-06
3.24836e-07
1.07922e-06
5.43381e-07
1.72582e-06
7.11824e-07
1.91435e-06
8.74611e-07
1.96758e-06
1.0258e-06
1.92398e-06
1.15184e-06
1.749e-06
1.23599e-06
1.41365e-06
1.27751e-06
9.59054e-07
1.30999e-06
4.7192e-07
1.32618e-06
-4.25183e-08
1.31971e-06
-5.61022e-07
1.28993e-06
-9.41476e-07
1.20624e-06
-1.24039e-06
1.07675e-06
-1.8303e-06
9.94063e-07
-2.63416e-06
9.97216e-07
-3.12583e-06
1.04002e-06
-3.23396e-06
1.10618e-06
-3.19e-06
1.1804e-06
-3.06629e-06
1.25825e-06
-2.92762e-06
1.3397e-06
-2.80215e-06
1.42411e-06
-2.69515e-06
1.51623e-06
-2.60246e-06
1.60872e-06
-2.52749e-06
-2.45907e-06
1.71022e-06
3.6466e-07
7.09663e-07
6.86771e-07
1.3995e-06
9.16576e-07
1.6828e-06
1.11662e-06
1.76046e-06
1.30677e-06
1.73421e-06
1.46536e-06
1.58446e-06
1.57676e-06
1.29648e-06
1.63753e-06
8.92443e-07
1.66525e-06
4.40096e-07
1.66334e-06
-4.41794e-08
1.63735e-06
-5.35864e-07
1.59194e-06
-8.9895e-07
1.50632e-06
-1.15582e-06
1.37688e-06
-1.70193e-06
1.27475e-06
-2.53307e-06
1.24503e-06
-3.09718e-06
1.25314e-06
-3.24315e-06
1.28537e-06
-3.22321e-06
1.32877e-06
-3.11053e-06
1.38058e-06
-2.98014e-06
1.44013e-06
-2.86254e-06
1.50847e-06
-2.76245e-06
1.58117e-06
-2.67989e-06
1.66554e-06
-2.60643e-06
-2.549e-06
1.75307e-06
3.18367e-07
3.67525e-07
7.75671e-07
9.35262e-07
1.08926e-06
1.36368e-06
1.33095e-06
1.52178e-06
1.53581e-06
1.51903e-06
1.7138e-06
1.40296e-06
1.84303e-06
1.16053e-06
1.91896e-06
8.11193e-07
1.94854e-06
4.05113e-07
1.9386e-06
-3.64931e-08
1.89808e-06
-4.98957e-07
1.84424e-06
-8.44559e-07
1.75877e-06
-1.07216e-06
1.63917e-06
-1.58342e-06
1.5332e-06
-2.42796e-06
1.47823e-06
-3.04311e-06
1.45784e-06
-3.22369e-06
1.45651e-06
-3.22277e-06
1.46948e-06
-3.12428e-06
1.49574e-06
-3.00713e-06
1.53459e-06
-2.90189e-06
1.58354e-06
-2.81346e-06
1.64551e-06
-2.73783e-06
1.71235e-06
-2.67843e-06
-2.62511e-06
1.79138e-06
1.85274e-07
1.6992e-07
7.55975e-07
3.58239e-07
1.20358e-06
9.15715e-07
1.49622e-06
1.21786e-06
1.72034e-06
1.29604e-06
1.89696e-06
1.21855e-06
2.02962e-06
1.02082e-06
2.11095e-06
7.23652e-07
2.14419e-06
3.67138e-07
2.1332e-06
-2.96533e-08
2.09267e-06
-4.57487e-07
2.03542e-06
-7.91747e-07
1.95794e-06
-9.95077e-07
1.85804e-06
-1.48409e-06
1.76116e-06
-2.3317e-06
1.68949e-06
-2.97212e-06
1.64352e-06
-3.1785e-06
1.61127e-06
-3.19132e-06
1.59622e-06
-3.10999e-06
1.59907e-06
-3.01069e-06
1.61825e-06
-2.92183e-06
1.65267e-06
-2.84696e-06
1.69666e-06
-2.78631e-06
1.75585e-06
-2.73257e-06
-2.69302e-06
1.82137e-06
6.80717e-08
6.66561e-08
5.63004e-07
-1.45868e-07
1.16567e-06
3.04274e-07
1.58247e-06
8.02798e-07
1.84234e-06
1.02515e-06
2.02162e-06
1.03211e-06
2.14739e-06
8.89002e-07
2.22449e-06
6.3976e-07
2.25846e-06
3.28385e-07
2.25448e-06
-2.71573e-08
2.21868e-06
-4.27536e-07
2.17004e-06
-7.40386e-07
2.10209e-06
-9.29115e-07
2.02943e-06
-1.41224e-06
1.95216e-06
-2.25488e-06
1.86978e-06
-2.89025e-06
1.80078e-06
-3.11011e-06
1.74262e-06
-3.13383e-06
1.70367e-06
-3.0717e-06
1.68653e-06
-2.99418e-06
1.68921e-06
-2.92501e-06
1.70761e-06
-2.86732e-06
1.743e-06
-2.81789e-06
1.78653e-06
-2.78116e-06
-2.74827e-06
1.84449e-06
7.52476e-08
-1.30938e-08
3.1684e-07
-3.95233e-07
8.95002e-07
-2.7811e-07
1.47256e-06
2.10909e-07
1.84737e-06
6.48139e-07
2.06465e-06
8.07065e-07
2.1943e-06
7.52244e-07
2.26907e-06
5.58977e-07
2.30422e-06
2.89414e-07
2.30716e-06
-3.46228e-08
2.28961e-06
-4.0562e-07
2.24439e-06
-7.01234e-07
2.18878e-06
-8.72898e-07
2.14928e-06
-1.37281e-06
2.09616e-06
-2.20199e-06
2.01147e-06
-2.80589e-06
1.92365e-06
-3.02276e-06
1.84468e-06
-3.0554e-06
1.78721e-06
-3.01481e-06
1.75448e-06
-2.96204e-06
1.74359e-06
-2.91486e-06
1.75203e-06
-2.87482e-06
1.77301e-06
-2.84329e-06
1.81125e-06
-2.81455e-06
-2.79689e-06
1.85748e-06
1.59157e-07
-1.94e-07
2.68052e-07
-5.14547e-07
5.52549e-07
-5.78914e-07
1.12286e-06
-3.57474e-07
1.63708e-06
1.18524e-07
1.95471e-06
4.8477e-07
2.12748e-06
5.72565e-07
2.22237e-06
4.59515e-07
2.26899e-06
2.3911e-07
2.29012e-06
-5.41306e-08
2.28534e-06
-4.08126e-07
2.25133e-06
-6.61535e-07
2.20903e-06
-8.32004e-07
2.21119e-06
-1.37524e-06
2.18628e-06
-2.17715e-06
2.1042e-06
-2.72399e-06
2.00442e-06
-2.92329e-06
1.91178e-06
-2.9632e-06
1.84277e-06
-2.94627e-06
1.80018e-06
-2.91999e-06
1.78068e-06
-2.89573e-06
1.77896e-06
-2.87498e-06
1.79557e-06
-2.85615e-06
1.82142e-06
-2.8453e-06
-2.83514e-06
1.86226e-06
1.31289e-07
-3.25099e-07
2.07472e-07
-5.98664e-07
3.0699e-07
-6.81069e-07
6.19967e-07
-6.95359e-07
1.16221e-06
-4.22062e-07
1.6051e-06
3.19209e-08
1.86803e-06
3.03403e-07
2.01718e-06
3.06052e-07
2.10375e-06
1.50385e-07
2.16064e-06
-1.14602e-07
2.18767e-06
-4.26958e-07
2.15129e-06
-6.30623e-07
2.1437e-06
-8.22443e-07
2.20337e-06
-1.43408e-06
2.21399e-06
-2.18744e-06
2.14028e-06
-2.65021e-06
2.03744e-06
-2.82058e-06
1.94062e-06
-2.86665e-06
1.86852e-06
-2.87455e-06
1.82261e-06
-2.87451e-06
1.79859e-06
-2.87227e-06
1.79343e-06
-2.86883e-06
1.80057e-06
-2.86747e-06
1.82451e-06
-2.86454e-06
-2.86919e-06
1.85628e-06
-7.23771e-09
-3.34897e-07
-2.6786e-08
-5.87012e-07
-5.24058e-08
-6.7028e-07
1.34237e-08
-7.54374e-07
3.46141e-07
-7.77375e-07
8.74517e-07
-5.04184e-07
1.29365e-06
-1.19682e-07
1.54737e-06
4.95522e-08
1.70963e-06
-1.11254e-08
1.83606e-06
-2.35059e-07
1.89142e-06
-4.87483e-07
1.8997e-06
-6.2998e-07
1.99264e-06
-9.143e-07
2.14558e-06
-1.58605e-06
2.19149e-06
-2.23279e-06
2.12518e-06
-2.58365e-06
2.02432e-06
-2.71971e-06
1.9329e-06
-2.77539e-06
1.86607e-06
-2.80799e-06
1.82288e-06
-2.83165e-06
1.79916e-06
-2.84881e-06
1.79041e-06
-2.86177e-06
1.79782e-06
-2.8712e-06
1.81313e-06
-2.88446e-06
-2.89562e-06
1.84206e-06
-1.93245e-07
-1.35335e-07
-3.76967e-07
-4.06709e-07
-5.12468e-07
-5.33429e-07
-5.82658e-07
-7.06514e-07
-5.58149e-07
-7.97777e-07
-3.10166e-07
-7.5986e-07
1.81576e-07
-6.11096e-07
6.04558e-07
-3.67929e-07
9.34608e-07
-3.34476e-07
1.19711e-06
-4.95408e-07
1.36931e-06
-6.4585e-07
1.54016e-06
-8.01983e-07
1.83599e-06
-1.20645e-06
2.07228e-06
-1.82062e-06
2.12347e-06
-2.28312e-06
2.05974e-06
-2.51949e-06
1.97001e-06
-2.6298e-06
1.89403e-06
-2.69941e-06
1.83956e-06
-2.75367e-06
1.80375e-06
-2.7961e-06
1.78308e-06
-2.8286e-06
1.77646e-06
-2.85403e-06
1.77883e-06
-2.87747e-06
1.79532e-06
-2.89643e-06
-2.92015e-06
1.81789e-06
-3.53616e-07
2.09329e-07
-6.21637e-07
-1.42627e-07
-8.13337e-07
-3.52542e-07
-9.2293e-07
-5.86748e-07
-9.44057e-07
-7.87032e-07
-8.24279e-07
-8.72553e-07
-6.02653e-07
-8.23342e-07
-2.36293e-07
-7.1665e-07
2.3143e-07
-7.88544e-07
6.49599e-07
-8.99032e-07
9.94209e-07
-9.90892e-07
1.39599e-06
-1.1936e-06
1.79634e-06
-1.60447e-06
2.00231e-06
-2.02502e-06
2.01948e-06
-2.29936e-06
1.95632e-06
-2.45579e-06
1.88736e-06
-2.56056e-06
1.83366e-06
-2.64564e-06
1.79523e-06
-2.71531e-06
1.76917e-06
-2.77024e-06
1.75409e-06
-2.81357e-06
1.74812e-06
-2.84956e-06
1.75399e-06
-2.87976e-06
1.76495e-06
-2.91141e-06
-2.93951e-06
1.78669e-06
-3.49269e-07
5.64134e-07
-6.52005e-07
1.57625e-07
-8.41082e-07
-1.58201e-07
-9.47032e-07
-4.92114e-07
-9.53419e-07
-7.69829e-07
-8.41411e-07
-9.78696e-07
-5.38054e-07
-1.11595e-06
-1.0517e-07
-1.13355e-06
3.08509e-07
-1.18624e-06
6.91976e-07
-1.2755e-06
1.09949e-06
-1.3846e-06
1.51301e-06
-1.60649e-06
1.79401e-06
-1.88194e-06
1.88474e-06
-2.11387e-06
1.86956e-06
-2.28311e-06
1.82708e-06
-2.41266e-06
1.78982e-06
-2.52292e-06
1.76117e-06
-2.6168e-06
1.73907e-06
-2.6932e-06
1.72317e-06
-2.75442e-06
1.71387e-06
-2.80455e-06
1.71259e-06
-2.84711e-06
1.71619e-06
-2.88668e-06
1.73e-06
-2.92106e-06
-2.9585e-06
1.74747e-06
-1.7965e-07
7.47815e-07
-4.85934e-07
4.64271e-07
-7.16582e-07
6.50841e-08
-8.26093e-07
-3.74131e-07
-8.05209e-07
-7.86898e-07
-6.32782e-07
-1.14183e-06
-3.14326e-07
-1.42045e-06
8.48621e-08
-1.51695e-06
4.83502e-07
-1.57147e-06