/*--------------------------------*- C++ -*----------------------------------*\
  =========                 |
  \\      /  F ield         | OpenFOAM: The Open Source CFD Toolbox
   \\    /   O peration     | Website:  https://openfoam.org
    \\  /    A nd           | Version:  13
     \\/     M anipulation  |
\*---------------------------------------------------------------------------*/
FoamFile
{
    format      ascii;
    class       volVectorField;
    location    "5";
    object      U;
}
// * * * * * * * * * * * * * * * * * * * * * * * * * * * * * * * * * * * * * //

dimensions      [0 1 -1 0 0 0 0];

internalField   nonuniform List<vector> 
6440
(
(-7.46481e-07 1.41803e-06 0)
(-1.90453e-06 1.82538e-06 0)
(-3.30119e-06 1.65742e-06 -3.81854e-20)
(-4.27596e-06 1.77697e-06 3.80777e-20)
(-5.20271e-06 2.12622e-06 0)
(-5.92165e-06 2.55256e-06 -7.56673e-20)
(-6.37836e-06 2.98046e-06 7.52473e-20)
(-6.57927e-06 3.39707e-06 0)
(-6.49549e-06 3.76257e-06 1.48776e-19)
(-6.09136e-06 4.02376e-06 -1.47565e-19)
(-5.35399e-06 4.13535e-06 -1.4638e-19)
(-4.29085e-06 4.05794e-06 -1.70698e-23)
(-2.93162e-06 3.76355e-06 2.49015e-23)
(-1.34327e-06 3.23924e-06 1.41801e-19)
(3.81044e-07 2.47993e-06 1.39918e-19)
(2.07913e-06 1.52778e-06 -1.38143e-19)
(3.6811e-06 4.48086e-07 0)
(5.14362e-06 -7.22511e-07 2.67673e-19)
(6.28099e-06 -1.87408e-06 -4.68557e-22)
(7.03563e-06 -2.84315e-06 -2.59292e-19)
(7.3993e-06 -3.55429e-06 2.54239e-19)
(7.24191e-06 -3.80264e-06 -4.9973e-19)
(7.27977e-06 -3.45952e-06 2.45446e-19)
(5.98859e-06 -8.82739e-07 -2.4038e-19)
(1.63201e-06 2.59619e-06 1.34378e-22)
(-6.07594e-07 3.69148e-06 0)
(-1.39456e-06 4.55397e-06 0)
(-2.30305e-06 3.84929e-06 -4.00084e-20)
(-2.88127e-06 3.67747e-06 3.9898e-20)
(-3.40372e-06 3.92087e-06 0)
(-3.84027e-06 4.34786e-06 -7.92971e-20)
(-4.11553e-06 4.83592e-06 7.88665e-20)
(-4.16495e-06 5.29448e-06 0)
(-4.02794e-06 5.72489e-06 0)
(-3.6916e-06 6.08113e-06 0)
(-3.13282e-06 6.30993e-06 0)
(-2.35113e-06 6.37045e-06 -1.52165e-19)
(-1.3687e-06 6.23402e-06 1.50595e-19)
(-2.37113e-07 5.88806e-06 0)
(9.53354e-07 5.34981e-06 1.47036e-19)
(2.10169e-06 4.65539e-06 -1.45207e-19)
(3.19761e-06 3.84165e-06 0)
(4.24478e-06 2.88969e-06 0)
(5.32107e-06 1.81068e-06 2.76862e-19)
(6.22621e-06 8.52843e-07 -2.72739e-19)
(6.49868e-06 1.95928e-07 2.67172e-19)
(6.05011e-06 1.47368e-08 -2.62912e-19)
(6.1748e-06 2.27147e-07 -2.57158e-19)
(6.34959e-06 2.52447e-06 6.52726e-22)
(8.23355e-07 7.53903e-06 1.88669e-19)
(-4.87854e-07 5.2345e-06 0)
(-1.2126e-06 6.05219e-06 0)
(-1.86827e-06 4.82511e-06 -3.99438e-20)
(-2.25538e-06 4.34218e-06 3.98406e-20)
(-2.57549e-06 4.36996e-06 0)
(-2.83875e-06 4.64629e-06 -7.92391e-20)
(-3.10862e-06 5.10999e-06 1.57745e-19)
(-3.2225e-06 5.60355e-06 -7.84435e-20)
(-3.08988e-06 6.0219e-06 1.56138e-19)
(-2.78394e-06 6.39652e-06 -1.5497e-19)
(-2.29227e-06 6.6934e-06 -1.5394e-19)
(-1.59516e-06 6.86691e-06 -7.78694e-23)
(-6.95692e-07 6.88613e-06 1.51153e-19)
(3.83871e-07 6.73193e-06 1.49591e-19)
(1.59402e-06 6.40393e-06 -8.27974e-23)
(2.87472e-06 5.91539e-06 -1.46118e-19)
(4.16008e-06 5.27627e-06 0)
(5.50668e-06 4.40999e-06 2.83603e-19)
(7.07969e-06 3.24401e-06 -2.79769e-19)
(8.3406e-06 2.10082e-06 0)
(8.74277e-06 1.11581e-06 2.69413e-19)
(8.25402e-06 4.65694e-07 -5.29744e-19)
(7.89691e-06 1.12385e-07 2.60281e-19)
(7.83046e-06 1.33657e-06 -2.54348e-19)
(5.36644e-07 7.26264e-06 1.92799e-19)
(-4.39143e-07 6.54051e-06 0)
(-1.19568e-06 7.01421e-06 0)
(-1.72774e-06 5.30301e-06 -3.97127e-20)
(-2.03889e-06 4.53446e-06 3.96165e-20)
(-2.27385e-06 4.35643e-06 0)
(-2.41667e-06 4.47536e-06 -7.88566e-20)
(-2.58979e-06 4.84828e-06 1.57044e-19)
(-2.82301e-06 5.43918e-06 -7.81292e-20)
(-2.87326e-06 6.04242e-06 0)
(-2.63387e-06 6.57011e-06 0)
(-2.20772e-06 7.08989e-06 0)
(-1.58147e-06 7.57182e-06 -1.5247e-19)
(-7.21924e-07 7.96225e-06 1.51078e-19)
(3.79839e-07 8.21455e-06 1.49666e-19)
(1.69921e-06 8.28851e-06 -1.48104e-19)
(3.16448e-06 8.15508e-06 0)
(4.71048e-06 7.74703e-06 2.88667e-19)
(6.44238e-06 6.91429e-06 -2.85141e-19)
(8.58672e-06 5.43493e-06 0)
(1.0341e-05 3.78002e-06 0)
(1.10268e-05 2.20305e-06 0)
(1.06616e-05 8.25405e-07 0)
(9.8355e-06 -2.07757e-07 0)
(9.51609e-06 -1.95817e-07 -2.5554e-19)
(5.7797e-07 6.57396e-06 3.50685e-22)
(-4.14236e-07 7.8232e-06 0)
(-1.22895e-06 7.76159e-06 0)
(-1.69388e-06 5.59983e-06 -3.93421e-20)
(-1.97544e-06 4.58512e-06 3.92527e-20)
(-2.18447e-06 4.24773e-06 0)
(-2.30275e-06 4.27339e-06 -7.81958e-20)
(-2.39843e-06 4.58169e-06 1.55787e-19)
(-2.58821e-06 5.1725e-06 -7.75362e-20)
(-2.84755e-06 6.00689e-06 0)
(-2.87048e-06 6.85304e-06 0)
(-2.57454e-06 7.69068e-06 0)
(-2.07211e-06 8.55301e-06 -1.51743e-19)
(-1.32518e-06 9.37959e-06 1.50442e-19)
(-2.7826e-07 1.00824e-05 1.49186e-19)
(1.07994e-06 1.05701e-05 -1.4772e-19)
(2.68253e-06 1.07689e-05 0)
(4.44922e-06 1.05857e-05 2.88387e-19)
(6.45564e-06 9.80478e-06 -2.85063e-19)
(9.07976e-06 8.02872e-06 0)
(1.14277e-05 5.6359e-06 0)
(1.25804e-05 3.31008e-06 0)
(1.24964e-05 1.15308e-06 0)
(1.13669e-05 -4.93468e-07 0)
(1.1006e-05 -1.58064e-06 -2.55893e-19)
(6.73042e-07 5.85959e-06 1.9885e-19)
(-3.91919e-07 9.12853e-06 0)
(-1.27322e-06 8.43566e-06 0)
(-1.70316e-06 5.86744e-06 -3.88562e-20)
(-1.9874e-06 4.64726e-06 3.87733e-20)
(-2.20331e-06 4.19486e-06 0)
(-2.34289e-06 4.18861e-06 -7.73023e-20)
(-2.45947e-06 4.5154e-06 1.54061e-19)
(-2.61966e-06 5.13483e-06 -7.67081e-20)
(-2.91115e-06 6.08971e-06 1.53028e-19)
(-3.15516e-06 7.2717e-06 -1.5208e-19)
(-3.12192e-06 8.4608e-06 0)
(-2.83262e-06 9.71712e-06 -1.50534e-19)
(-2.28018e-06 1.09857e-05 -1.34181e-22)
(-1.38812e-06 1.21407e-05 2.96386e-19)
(-9.99626e-08 1.3037e-05 -1.46856e-19)
(1.56397e-06 1.35377e-05 0)
(3.50195e-06 1.3537e-05 2.87213e-19)
(5.73539e-06 1.28013e-05 -6.23673e-22)
(8.5351e-06 1.09032e-05 -8.64047e-22)
(1.14086e-05 7.80383e-06 -2.7606e-19)
(1.33454e-05 4.60603e-06 0)
(1.3751e-05 1.64827e-06 0)
(1.25298e-05 -5.37758e-07 0)
(1.22982e-05 -2.55584e-06 -2.55531e-19)
(7.8519e-07 5.34917e-06 2.00913e-19)
(-3.70503e-07 1.04528e-05 0)
(-1.31902e-06 9.08992e-06 0)
(-1.73216e-06 6.16368e-06 -3.8277e-20)
(-2.03202e-06 4.77373e-06 3.82003e-20)
(-2.25758e-06 4.2417e-06 7.63646e-20)
(-2.41845e-06 4.23488e-06 -1.52331e-19)
(-2.55565e-06 4.60811e-06 1.51954e-19)
(-2.70077e-06 5.29257e-06 -7.56878e-20)
(-2.96917e-06 6.31398e-06 0)
(-3.40155e-06 7.71691e-06 1.50477e-19)
(-3.65019e-06 9.25984e-06 -1.4951e-19)
(-3.55536e-06 1.089e-05 -1.48921e-19)
(-3.22209e-06 1.25747e-05 1.47792e-19)
(-2.55363e-06 1.41672e-05 1.46868e-19)
(-1.44184e-06 1.54726e-05 -1.45586e-19)
(1.59763e-07 1.62845e-05 0)
(2.16918e-06 1.64514e-05 2.85276e-19)
(4.48372e-06 1.58198e-05 -2.82346e-19)
(7.23704e-06 1.39729e-05 0)
(1.06242e-05 1.04666e-05 2.73669e-19)
(1.34933e-05 6.31978e-06 -2.70479e-19)
(1.45304e-05 2.54968e-06 0)
(1.34373e-05 -1.35569e-07 0)
(1.34904e-05 -2.94242e-06 -2.54558e-19)
(9.30394e-07 5.1944e-06 5.28673e-22)
(-3.54125e-07 1.1787e-05 0)
(-1.36853e-06 9.75199e-06 0)
(-1.77972e-06 6.51714e-06 -3.76233e-20)
(-2.10171e-06 4.9915e-06 3.75524e-20)
(-2.33848e-06 4.41092e-06 0)
(-2.50927e-06 4.4166e-06 -7.49839e-20)
(-2.65638e-06 4.83423e-06 7.47056e-20)
(-2.79814e-06 5.5692e-06 0)
(-3.00088e-06 6.62876e-06 0)
(-3.39516e-06 8.11759e-06 0)
(-3.75474e-06 9.95639e-06 0)
(-3.85833e-06 1.18794e-05 -1.46977e-19)
(-3.75436e-06 1.39246e-05 1.45927e-19)
(-3.34664e-06 1.59353e-05 0)
(-2.50495e-06 1.76722e-05 0)
(-1.12496e-06 1.88672e-05 0)
(8.15283e-07 1.92726e-05 0)
(3.16115e-06 1.87616e-05 0)
(5.91399e-06 1.70659e-05 2.75818e-19)
(9.45841e-06 1.35671e-05 -2.72894e-19)
(1.29857e-05 8.57741e-06 0)
(1.49393e-05 3.88478e-06 0)
(1.42717e-05 6.35283e-07 0)
(1.46391e-05 -2.81327e-06 -2.53053e-19)
(1.07317e-06 5.40958e-06 2.03389e-19)
(-3.45144e-07 1.31214e-05 0)
(-1.41874e-06 1.04365e-05 0)
(-1.83638e-06 6.94107e-06 -3.69112e-20)
(-2.17748e-06 5.31604e-06 3.68458e-20)
(-2.41465e-06 4.71905e-06 0)
(-2.5681e-06 4.74987e-06 -7.36289e-20)
(-2.67799e-06 5.19558e-06 1.46884e-19)
(-2.75157e-06 5.94691e-06 -7.32146e-20)
(-2.81688e-06 6.99603e-06 0)
(-3.01299e-06 8.44327e-06 0)
(-3.39734e-06 1.03856e-05 1.45387e-19)
(-3.64742e-06 1.2533e-05 -2.89248e-19)
(-3.62586e-06 1.48522e-05 1.4379e-19)
(-3.41464e-06 1.72358e-05 1.43189e-19)
(-2.8731e-06 1.94246e-05 -1.42075e-19)
(-1.83215e-06 2.10948e-05 0)
(-1.65092e-07 2.19046e-05 -2.79537e-19)
(2.10644e-06 2.15984e-05 2.76971e-19)
(4.79625e-06 2.00761e-05 0)
(8.02224e-06 1.68949e-05 0)
(1.19685e-05 1.15325e-05 0)
(1.50741e-05 5.73075e-06 2.60599e-19)
(1.49909e-05 1.71229e-06 -2.57682e-19)
(1.56623e-05 -2.44834e-06 -2.51095e-19)
(1.13948e-06 5.83131e-06 2.03894e-19)
(-3.42603e-07 1.44388e-05 0)
(-1.45976e-06 1.11387e-05 0)
(-1.88404e-06 7.42484e-06 0)
(-2.23385e-06 5.736e-06 0)
(-2.45664e-06 5.15364e-06 0)
(-2.57126e-06 5.22064e-06 0)
(-2.60864e-06 5.67688e-06 0)
(-2.57484e-06 6.40247e-06 0)
(-2.47692e-06 7.37995e-06 -1.43672e-19)
(-2.40592e-06 8.68383e-06 1.42976e-19)
(-2.53229e-06 1.04692e-05 0)
(-2.6454e-06 1.26811e-05 0)
(-2.59206e-06 1.51703e-05 0)
(-2.48408e-06 1.78545e-05 0)
(-2.20628e-06 2.04908e-05 0)
(-1.56845e-06 2.27307e-05 0)
(-3.67027e-07 2.41573e-05 0)
(1.5401e-06 2.43561e-05 -2.73222e-19)
(4.0467e-06 2.31195e-05 2.70735e-19)
(7.0375e-06 2.03165e-05 0)
(1.09334e-05 1.52823e-05 -2.62602e-19)
(1.46901e-05 8.60871e-06 2.59911e-19)
(1.52879e-05 3.66586e-06 0)
(1.65351e-05 -1.49438e-06 0)
(1.264e-06 6.42844e-06 0)
(-3.42917e-07 1.57107e-05 0)
(-1.4768e-06 1.18328e-05 0)
(-1.89788e-06 7.93444e-06 0)
(-2.23725e-06 6.21342e-06 0)
(-2.42344e-06 5.67214e-06 0)
(-2.47228e-06 5.78377e-06 0)
(-2.40222e-06 6.2409e-06 7.0604e-20)
(-2.21414e-06 6.91272e-06 -7.03503e-20)
(-1.91135e-06 7.78903e-06 -1.40832e-19)
(-1.54788e-06 8.92681e-06 1.40188e-19)
(-1.25799e-06 1.04606e-05 1.40195e-19)
(-9.64231e-07 1.24932e-05 -1.39421e-19)
(-6.34674e-07 1.48862e-05 0)
(-4.08628e-07 1.76571e-05 1.38586e-19)
(-2.31918e-07 2.06421e-05 2.09355e-22)
(7.05727e-08 2.3492e-05 -1.36819e-19)
(7.34772e-07 2.57346e-05 0)
(2.03481e-06 2.68144e-05 -2.69468e-19)
(4.14313e-06 2.62434e-05 2.67143e-19)
(6.88857e-06 2.38874e-05 0)
(1.01999e-05 1.95502e-05 0)
(1.40962e-05 1.27681e-05 2.55382e-19)
(1.55474e-05 6.78152e-06 -2.52818e-19)
(1.74309e-05 4.28131e-07 0)
(1.45954e-06 7.52205e-06 0)
(-3.40616e-07 1.68966e-05 0)
(-1.45151e-06 1.24752e-05 0)
(-1.84687e-06 8.41802e-06 0)
(-2.14642e-06 6.69139e-06 0)
(-2.26517e-06 6.21249e-06 0)
(-2.21427e-06 6.37633e-06 0)
(-1.99998e-06 6.83219e-06 0)
(-1.61177e-06 7.43878e-06 0)
(-1.0476e-06 8.18943e-06 0)
(-3.33524e-07 9.13232e-06 0)
(4.68027e-07 1.036e-05 -1.37393e-19)
(1.28136e-06 1.20533e-05 1.36676e-19)
(2.0796e-06 1.41713e-05 0)
(2.77076e-06 1.67519e-05 0)
(3.2132e-06 1.97817e-05 0)
(3.441e-06 2.30747e-05 0)
(3.67008e-06 2.62145e-05 0)
(4.24581e-06 2.85147e-05 0)
(5.54964e-06 2.92145e-05 0)
(7.74466e-06 2.77426e-05 0)
(1.05922e-05 2.40573e-05 0)
(1.41987e-05 1.785e-05 -2.52359e-19)
(1.59225e-05 1.10516e-05 2.49956e-19)
(1.85618e-05 3.16386e-06 0)
(1.82766e-06 9.06481e-06 0)
(-3.28593e-07 1.79432e-05 0)
(-1.361e-06 1.30058e-05 0)
(-1.69041e-06 8.80598e-06 0)
(-1.90439e-06 7.09229e-06 0)
(-1.90672e-06 6.68931e-06 6.74684e-20)
(-1.70398e-06 6.91147e-06 -6.73125e-20)
(-1.29484e-06 7.37572e-06 0)
(-6.61961e-07 7.93769e-06 0)
(2.01981e-07 8.58805e-06 -1.34808e-19)
(1.28439e-06 9.36315e-06 2.68937e-19)
(2.61323e-06 1.03028e-05 4.13274e-22)
(4.11402e-06 1.15431e-05 -1.33823e-19)
(5.62378e-06 1.3204e-05 0)
(6.97893e-06 1.53735e-05 0)
(8.01601e-06 1.81344e-05 1.32857e-19)
(8.66299e-06 2.14884e-05 -1.31981e-19)
(8.87727e-06 2.52603e-05 -2.62817e-19)
(8.88294e-06 2.88851e-05 -9.26539e-23)
(9.20125e-06 3.14167e-05 2.58934e-19)
(1.0376e-05 3.17338e-05 2.56115e-19)
(1.25014e-05 2.92204e-05 -2.5395e-19)
(1.52476e-05 2.39619e-05 2.4912e-19)
(1.66762e-05 1.71428e-05 -2.46868e-19)
(2.00366e-05 7.12663e-06 0)
(2.31239e-06 1.10757e-05 0)
(-2.98728e-07 1.87863e-05 0)
(-1.18071e-06 1.33487e-05 0)
(-1.38276e-06 9.00754e-06 0)
(-1.44337e-06 7.30895e-06 0)
(-1.25589e-06 6.9786e-06 0)
(-8.19733e-07 7.25174e-06 0)
(-1.3129e-07 7.72993e-06 0)
(8.21465e-07 8.28518e-06 0)
(2.04379e-06 8.9141e-06 -1.31659e-19)
(3.54006e-06 9.63813e-06 1.31151e-19)
(5.38765e-06 1.04628e-05 0)
(7.55428e-06 1.13675e-05 0)
(9.87692e-06 1.2393e-05 0)
(1.21615e-05 1.38255e-05 0)
(1.41664e-05 1.59913e-05 0)
(1.56717e-05 1.90732e-05 0)
(1.64638e-05 2.30189e-05 0)
(1.65268e-05 2.75054e-05 -2.56333e-19)
(1.61366e-05 3.20424e-05 2.5444e-19)
(1.59654e-05 3.51332e-05 0)
(1.67624e-05 3.50564e-05 0)
(1.85622e-05 3.11007e-05 0)
(1.87184e-05 2.51042e-05 0)
(2.17228e-05 1.3075e-05 0)
(2.98283e-06 1.37641e-05 0)
(-2.43559e-07 1.93548e-05 0)
(-8.90063e-07 1.34164e-05 0)
(-8.82534e-07 8.91442e-06 0)
(-6.96422e-07 7.20426e-06 0)
(-2.17494e-07 6.91415e-06 0)
(5.655e-07 7.20651e-06 0)
(1.66303e-06 7.67704e-06 0)
(3.07337e-06 8.23721e-06 0)
(4.78472e-06 8.917e-06 0)
(6.81079e-06 9.71494e-06 0)
(9.17985e-06 1.05972e-05 1.28373e-19)
(1.18054e-05 1.14258e-05 -1.27804e-19)
(1.47895e-05 1.20107e-05 0)
(1.81977e-05 1.26921e-05 0)
(2.16394e-05 1.39537e-05 1.27475e-19)
(2.45244e-05 1.62741e-05 -1.26723e-19)
(2.63427e-05 2.00417e-05 -2.52894e-19)
(2.72831e-05 2.51296e-05 2.51214e-19)
(2.72654e-05 3.10999e-05 0)
(2.61884e-05 3.69147e-05 0)
(2.50603e-05 4.07146e-05 0)
(2.49073e-05 3.96405e-05 2.42172e-19)
(2.28686e-05 3.47914e-05 -4.78494e-19)
(2.4729e-05 2.0979e-05 2.36303e-19)
(4.2081e-06 1.71845e-05 0)
(-1.57308e-07 1.95771e-05 0)
(-4.78229e-07 1.31182e-05 0)
(-1.64287e-07 8.40872e-06 0)
(3.85596e-07 6.62092e-06 0)
(1.28992e-06 6.2901e-06 0)
(2.56217e-06 6.52825e-06 0)
(4.229e-06 6.93005e-06 -6.25296e-20)
(6.29132e-06 7.43774e-06 6.23586e-20)
(8.68573e-06 8.15683e-06 -1.25135e-19)
(1.13714e-05 9.07969e-06 1.247e-19)
(1.43035e-05 1.01184e-05 -1.25148e-19)
(1.73501e-05 1.12942e-05 1.2462e-19)
(2.09693e-05 1.23331e-05 0)
(2.54785e-05 1.28397e-05 -1.24863e-19)
(3.03811e-05 1.33558e-05 1.24206e-19)
(3.5124e-05 1.44789e-05 0)
(3.91466e-05 1.69699e-05 0)
(4.18408e-05 2.15856e-05 -2.46574e-19)
(4.26123e-05 2.8472e-05 -2.6898e-22)
(4.18056e-05 3.69538e-05 2.43495e-19)
(3.94761e-05 4.50169e-05 0)
(3.63668e-05 4.87036e-05 -2.3858e-19)
(3.09398e-05 4.69016e-05 2.36716e-19)
(3.05233e-05 3.09665e-05 0)
(6.49925e-06 2.01201e-05 -1.98011e-19)
(-3.83731e-08 1.93959e-05 0)
(4.67316e-08 1.23832e-05 0)
(7.71351e-07 7.38906e-06 0)
(1.81404e-06 5.41843e-06 0)
(3.3011e-06 4.90307e-06 0)
(5.23819e-06 4.93988e-06 0)
(7.6457e-06 5.14926e-06 0)
(1.05624e-05 5.48129e-06 0)
(1.38743e-05 6.0782e-06 0)
(1.74176e-05 7.07118e-06 0)
(2.13011e-05 8.47272e-06 0)
(2.54841e-05 1.03247e-05 0)
(2.98203e-05 1.25738e-05 0)
(3.48738e-05 1.41346e-05 0)
(4.08716e-05 1.48859e-05 0)
(4.727e-05 1.54903e-05 0)
(5.35775e-05 1.66644e-05 0)
(5.92746e-05 1.91977e-05 0)
(6.35435e-05 2.44158e-05 0)
(6.49342e-05 3.3444e-05 0)
(6.20266e-05 4.56478e-05 0)
(5.64347e-05 5.63393e-05 0)
(4.59884e-05 6.04936e-05 0)
(3.92404e-05 4.19481e-05 0)
(9.11231e-06 2.07583e-05 0)
(1.00281e-07 1.87923e-05 1.3483e-20)
(6.53266e-07 1.11963e-05 1.48087e-20)
(1.89771e-06 5.8076e-06 -2.95817e-20)
(3.56023e-06 3.48037e-06 5.9212e-20)
(5.77547e-06 2.54857e-06 -5.91268e-20)
(8.56436e-06 2.10657e-06 0)
(1.19069e-05 1.87277e-06 5.92117e-20)
(1.5838e-05 1.86912e-06 5.93524e-20)
(2.03241e-05 2.16722e-06 -2.36489e-19)
(2.53178e-05 2.95195e-06 1.18033e-19)
(3.08338e-05 4.41988e-06 1.18374e-19)
(3.66506e-05 6.54533e-06 -1.17921e-19)
(4.22303e-05 9.49261e-06 -1.18333e-19)
(4.7969e-05 1.30281e-05 2.36118e-19)
(5.47701e-05 1.6065e-05 5.37569e-22)
(6.25541e-05 1.83474e-05 1.1877e-19)
(7.07608e-05 2.02224e-05 -2.35179e-19)
(7.92867e-05 2.19984e-05 -2.35862e-19)
(8.76155e-05 2.50496e-05 4.69698e-19)
(9.41836e-05 3.00384e-05 -2.33773e-19)
(9.59729e-05 3.94247e-05 0)
(8.99416e-05 5.29417e-05 2.31513e-19)
(6.97358e-05 6.61801e-05 -4.59074e-19)
(5.15112e-05 4.86632e-05 2.27545e-19)
(1.35173e-05 2.03238e-05 1.96721e-19)
(2.32426e-07 1.77774e-05 0)
(1.29702e-06 9.53476e-06 0)
(3.12895e-06 3.59378e-06 0)
(5.49058e-06 6.52334e-07 0)
(8.52372e-06 -9.3562e-07 0)
(1.23276e-05 -2.1122e-06 0)
(1.68803e-05 -3.11626e-06 0)
(2.21046e-05 -3.84218e-06 0)
(2.79822e-05 -4.15579e-06 0)
(3.4626e-05 -3.78269e-06 0)
(4.19926e-05 -2.5863e-06 0)
(4.98695e-05 -5.88763e-07 0)
(5.81178e-05 2.27045e-06 0)
(6.65151e-05 6.34598e-06 0)
(7.50992e-05 1.13143e-05 0)
(8.41739e-05 1.66445e-05 0)
(9.37023e-05 2.2022e-05 0)
(0.000104312 2.66619e-05 0)
(0.000115059 3.13616e-05 -2.29484e-19)
(0.000124971 3.58807e-05 2.28069e-19)
(0.000132359 4.30082e-05 0)
(0.000131939 5.48993e-05 0)
(0.000109043 7.38445e-05 0)
(8.9194e-05 5.42131e-05 0)
(3.87294e-05 1.19035e-05 0)
(3.19514e-07 1.63753e-05 0)
(1.91973e-06 7.27768e-06 0)
(4.33932e-06 4.72019e-07 0)
(7.48505e-06 -3.3664e-06 0)
(1.15036e-05 -5.92543e-06 0)
(1.64343e-05 -8.18009e-06 0)
(2.22517e-05 -1.03751e-05 0)
(2.89044e-05 -1.23673e-05 0)
(3.65581e-05 -1.37049e-05 0)
(4.53352e-05 -1.41848e-05 0)
(5.50154e-05 -1.37537e-05 -1.11499e-19)
(6.53682e-05 -1.23548e-05 1.11109e-19)
(7.6284e-05 -9.94865e-06 0)
(8.77789e-05 -6.49843e-06 0)
(9.99521e-05 -1.78041e-06 0)
(0.000112571 4.47236e-06 0)
(0.000124905 1.28442e-05 0)
(0.000137529 2.3876e-05 0)
(0.000149913 3.83337e-05 0)
(0.000163394 5.70773e-05 0)
(0.00017791 7.91926e-05 0)
(0.000187861 0.000105296 -2.25023e-19)
(0.000175187 0.000136325 2.23456e-19)
(0.000171022 0.000125822 0)
(0.000162202 -4.7843e-05 0)
(3.80322e-07 1.48707e-05 0)
(2.34532e-06 4.70354e-06 0)
(5.2475e-06 -3.22164e-06 0)
(9.12319e-06 -8.20672e-06 0)
(1.39795e-05 -1.20077e-05 0)
(1.98498e-05 -1.55955e-05 0)
(2.67138e-05 -1.91721e-05 0)
(3.47823e-05 -2.23984e-05 0)
(4.4176e-05 -2.49392e-05 0)
(5.47297e-05 -2.67371e-05 0)
(6.63388e-05 -2.77475e-05 0)
(7.89067e-05 -2.78755e-05 0)
(9.2385e-05 -2.70602e-05 0)
(0.000106744 -2.52859e-05 0)
(0.000122025 -2.25459e-05 0)
(0.000138192 -1.86567e-05 0)
(0.000155247 -1.27835e-05 0)
(0.000173634 -3.2655e-06 0)
(0.000193695 1.11881e-05 0)
(0.000215451 3.37491e-05 0)
(0.000239907 6.36707e-05 0)
(0.000265984 9.98261e-05 0)
(0.000289122 0.000132221 0)
(0.000311962 0.000145618 0)
(0.00011348 -6.22438e-05 0)
(3.91552e-07 1.34188e-05 0)
(2.55285e-06 2.08131e-06 0)
(5.82929e-06 -6.98366e-06 0)
(1.02736e-05 -1.31349e-05 0)
(1.58269e-05 -1.8123e-05 0)
(2.25125e-05 -2.2901e-05 0)
(3.04838e-05 -2.76412e-05 0)
(3.97941e-05 -3.20263e-05 0)
(5.03613e-05 -3.5913e-05 0)
(6.22073e-05 -3.90741e-05 0)
(7.53307e-05 -4.13899e-05 0)
(8.96635e-05 -4.28006e-05 0)
(0.000105138 -4.33098e-05 0)
(0.000121688 -4.29648e-05 0)
(0.000139296 -4.17819e-05 0)
(0.00015808 -3.96828e-05 0)
(0.000178173 -3.62055e-05 0)
(0.000199989 -3.04742e-05 0)
(0.000224037 -2.11665e-05 0)
(0.000250788 -5.88983e-06 0)
(0.000281201 1.8218e-05 0)
(0.000314717 5.12972e-05 0)
(0.000348838 8.9617e-05 0)
(0.000380954 0.000122532 0)
(0.000384891 0.00012234 0)
(4.1771e-07 1.18667e-05 0)
(2.75276e-06 -7.90968e-07 0)
(6.39602e-06 -1.11345e-05 0)
(1.13822e-05 -1.85328e-05 0)
(1.76382e-05 -2.47698e-05 0)
(2.51853e-05 -3.08131e-05 0)
(3.41002e-05 -3.68465e-05 0)
(4.44239e-05 -4.27238e-05 0)
(5.61827e-05 -4.81108e-05 0)
(6.93831e-05 -5.27074e-05 0)
(8.39727e-05 -5.6378e-05 0)
(9.99022e-05 -5.90764e-05 0)
(0.000117114 -6.08177e-05 0)
(0.000135544 -6.16456e-05 0)
(0.000155161 -6.15778e-05 0)
(0.000175966 -6.05573e-05 0)
(0.00019793 -5.84039e-05 0)
(0.000221115 -5.45252e-05 0)
(0.000245818 -4.79303e-05 0)
(0.00027247 -3.65988e-05 0)
(0.000301109 -1.7637e-05 0)
(0.000330909 1.15696e-05 0)
(0.000360581 5.32972e-05 0)
(0.000390574 0.000108388 0)
(0.000404165 0.000180315 0)
(4.42478e-07 1.02285e-05 0)
(2.94199e-06 -3.9062e-06 0)
(6.93322e-06 -1.56887e-05 0)
(1.24288e-05 -2.44772e-05 0)
(1.93429e-05 -3.20993e-05 0)
(2.76825e-05 -3.95698e-05 0)
(3.74923e-05 -4.71046e-05 0)
(4.88121e-05 -5.44984e-05 0)
(6.1676e-05 -6.14023e-05 0)
(7.60859e-05 -6.75468e-05 0)
(9.2e-05 -7.27502e-05 0)
(0.000109365 -7.69266e-05 0)
(0.000128109 -8.00607e-05 0)
(0.000148143 -8.2174e-05 0)
(0.000169359 -8.32854e-05 0)
(0.00019162 -8.33741e-05 0)
(0.000214726 -8.22725e-05 0)
(0.000238459 -7.94451e-05 0)
(0.000262651 -7.38169e-05 0)
(0.00028718 -6.35252e-05 0)
(0.000311727 -4.56892e-05 0)
(0.000335599 -1.59876e-05 0)
(0.000358064 3.09556e-05 0)
(0.000378308 0.000100624 0)
(0.000386025 0.00019723 0)
(4.65925e-07 8.49425e-06 0)
(3.12958e-06 -7.28048e-06 0)
(7.4608e-06 -2.06483e-05 0)
(1.34467e-05 -3.09563e-05 0)
(2.09909e-05 -4.00757e-05 0)
(3.0085e-05 -4.90623e-05 0)
(4.07569e-05 -5.81525e-05 0)
(5.30383e-05 -6.71262e-05 0)
(6.69495e-05 -7.56249e-05 0)
(8.2487e-05 -8.33508e-05 0)
(9.96159e-05 -9.00981e-05 0)
(0.000118277 -9.57545e-05 0)
(0.000138382 -0.000100275 0)
(0.000159808 -0.000103646 0)
(0.000182386 -0.000105846 0)
(0.000205885 -0.000106796 0)
(0.000229988 -0.000106245 0)
(0.000254305 -0.000103603 0)
(0.000278382 -9.77235e-05 0)
(0.000301695 -8.66437e-05 0)
(0.000323774 -6.72752e-05 0)
(0.000344254 -3.49727e-05 0)
(0.000362894 1.62136e-05 0)
(0.000379278 9.24764e-05 0)
(0.000389654 0.00019946 0)
(4.87389e-07 6.66603e-06 0)
(3.31075e-06 -1.09158e-05 0)
(7.96934e-06 -2.60186e-05 0)
(1.44288e-05 -3.7987e-05 0)
(2.25803e-05 -4.87313e-05 0)
(3.24019e-05 -5.93435e-05 0)
(4.39069e-05 -7.00813e-05 0)
(5.71121e-05 -8.07214e-05 0)
(7.20256e-05 -9.08924e-05 0)
(8.86347e-05 -0.000100266 0)
(0.000106902 -0.000108609 0)
(0.00012676 -0.000115784 0)
(0.000148111 -0.000121708 0)
(0.000170812 -0.000126323 0)
(0.000194666 -0.000129543 0)
(0.000219401 -0.0001312 0)
(0.000244656 -0.000130941 0)
(0.000269986 -0.00012809 0)
(0.000294869 -0.000121443 0)
(0.000318755 -0.000109002 0)
(0.000341275 -8.76499e-05 0)
(0.000362424 -5.30292e-05 0)
(0.00038259 2.57193e-07 0)
(0.000402669 7.78928e-05 0)
(0.000423332 0.000185024 0)
(5.0656e-07 4.75009e-06 0)
(3.4806e-06 -1.48003e-05 0)
(8.45088e-06 -3.17825e-05 0)
(1.5363e-05 -4.55489e-05 0)
(2.40991e-05 -5.80436e-05 0)
(3.46229e-05 -7.03931e-05 0)
(4.69308e-05 -8.28727e-05 0)
(6.10239e-05 -9.52593e-05 0)
(7.68961e-05 -0.000107169 0)
(9.45264e-05 -0.000118251 0)
(0.00011387 -0.000128246 0)
(0.000134857 -0.000136985 0)
(0.000157384 -0.000144349 0)
(0.000181306 -0.000150227 0)
(0.000206427 -0.000154468 0)
(0.000232485 -0.000156822 0)
(0.000259144 -0.000156848 0)
(0.000286005 -0.000153798 0)
(0.000312644 -0.000146446 0)
(0.000338687 -0.00013288 0)
(0.000363972 -0.000110267 0)
(0.000388826 -7.48034e-05 0)
(0.000414404 -2.19232e-05 0)
(0.000442678 5.29628e-05 0)
(0.000476339 0.000153598 0)
(5.2334e-07 2.75389e-06 0)
(3.63675e-06 -1.89184e-05 0)
(8.89831e-06 -3.792e-05 0)
(1.62402e-05 -5.36175e-05 0)
(2.55345e-05 -6.79864e-05 0)
(3.67309e-05 -8.21806e-05 0)
(4.98076e-05 -9.6492e-05 0)
(6.47484e-05 -0.0001107 0)
(8.15346e-05 -0.000124411 0)
(0.000100135 -0.000137257 0)
(0.0001205 -0.000148956 0)
(0.000142558 -0.00015931 0)
(0.00016621 -0.000168165 0)
(0.000191322 -0.000175366 0)
(0.00021772 -0.000180709 0)
(0.000245183 -0.000183882 0)
(0.000273443 -0.000184389 0)
(0.000302209 -0.000181454 0)
(0.000331216 -0.000173895 0)
(0.000360315 -0.000159985 0)
(0.000389634 -0.000137315 0)
(0.00041987 -0.000102742 0)
(0.000452571 -5.26094e-05 0)
(0.0004902 1.64813e-05 0)
(0.000536189 0.000106919 0)
(5.37749e-07 6.85479e-07 0)
(3.77707e-06 -2.32518e-05 0)
(9.30817e-06 -4.44071e-05 0)
(1.70526e-05 -6.21665e-05 0)
(2.68752e-05 -7.85288e-05 0)
(3.87089e-05 -9.46703e-05 0)
(5.25141e-05 -0.000110898 0)
(6.82585e-05 -0.000126997 0)
(8.5909e-05 -0.000142569 0)
(0.000105427 -0.00015723 0)
(0.000126758 -0.000170682 0)
(0.000149833 -0.000182704 0)
(0.000174562 -0.000193115 0)
(0.000200831 -0.000201728 0)
(0.000228499 -0.000208303 0)
(0.000257403 -0.000212493 0)
(0.000287363 -0.000213787 0)
(0.000318215 -0.000211426 0)
(0.000349862 -0.000204327 0)
(0.000382369 -0.000190993 0)
(0.000416117 -0.000169451 0)
(0.000452024 -0.00013727 0)
(0.000491786 -9.17637e-05 0)
(0.00053798 -3.04631e-05 0)
(0.000594067 4.8066e-05 0)
(5.49709e-07 -1.44659e-06 0)
(3.90115e-06 -2.77804e-05 0)
(9.67723e-06 -5.12179e-05 0)
(1.77955e-05 -7.11653e-05 0)
(2.81109e-05 -8.96354e-05 0)
(4.05413e-05 -0.000107822 0)
(5.50299e-05 -0.000126047 0)
(7.15275e-05 -0.000144103 0)
(8.99895e-05 -0.000161589 0)
(0.000110368 -0.000178115 0)
(0.000132607 -0.00019337 0)
(0.000156642 -0.000207116 0)
(0.000182394 -0.000219156 0)
(0.000209773 -0.000229284 0)
(0.000238678 -0.000237245 0)
(0.000269006 -0.000242685 0)
(0.000300665 -0.000245107 0)
(0.000333608 -0.000243813 0)
(0.000367887 -0.000237853 0)
(0.000403738 -0.000225979 0)
(0.000441706 -0.000206637 0)
(0.000482809 -0.000178021 0)
(0.000528717 -0.000138262 0)
(0.00058186 -8.57418e-05 0)
(0.000645378 -1.96428e-05 0)
(5.59218e-07 -3.63364e-06 0)
(4.00809e-06 -3.2484e-05 0)
(1.00051e-05 -5.83252e-05 0)
(1.8464e-05 -8.05798e-05 0)
(2.92331e-05 -0.000101266 0)
(4.22149e-05 -0.000121589 0)
(5.7336e-05 -0.000141887 0)
(7.45325e-05 -0.000161962 0)
(9.37471e-05 -0.000181415 0)
(0.000114925 -0.000199853 0)
(0.00013801 -0.000216958 0)
(0.000162941 -0.000232487 0)
(0.000189652 -0.000246232 0)
(0.000218079 -0.000257985 0)
(0.000248159 -0.000267492 0)
(0.000279844 -0.000274415 0)
(0.000313119 -0.000278297 0)
(0.000348034 -0.000278524 0)
(0.000384755 -0.000274297 0)
(0.000423633 -0.000264616 0)
(0.000465303 -0.000248296 0)
(0.000510797 -0.000224043 0)
(0.000561658 -0.000190613 0)
(0.000620013 -0.000147071 0)
(0.000688538 -9.31285e-05 0)
(5.66288e-07 -5.86699e-06 0)
(4.09842e-06 -3.73422e-05 0)
(1.02898e-05 -6.56994e-05 0)
(1.9055e-05 -9.03726e-05 0)
(3.02343e-05 -0.000113376 0)
(4.37176e-05 -0.000135923 0)
(5.94162e-05 -0.000158365 0)
(7.7251e-05 -0.000180516 0)
(9.71546e-05 -0.000201984 0)
(0.000119065 -0.000222379 0)
(0.000142925 -0.000241383 0)
(0.00016868 -0.000258749 0)
(0.000196276 -0.000274276 0)
(0.000225672 -0.000287761 0)
(0.000256838 -0.000298964 0)
(0.000289773 -0.000307582 0)
(0.000324523 -0.000313214 0)
(0.000361211 -0.000315344 0)
(0.000400079 -0.000313326 0)
(0.000441546 -0.000306386 0)
(0.000486279 -0.000293655 0)
(0.000535266 -0.000274242 0)
(0.000589886 -0.000247369 0)
(0.000651936 -0.000212566 0)
(0.000723587 -0.000169927 0)
(5.70998e-07 -8.13774e-06 0)
(4.17129e-06 -4.23334e-05 0)
(1.05309e-05 -7.33088e-05 0)
(1.95643e-05 -0.000100503 0)
(3.11081e-05 -0.000125918 0)
(4.50393e-05 -0.000150768 0)
(6.12545e-05 -0.00017542 0)
(7.96626e-05 -0.0001997 0)
(0.000100185 -0.000223229 0)
(0.000122754 -0.000245623 0)
(0.000147312 -0.000266568 0)
(0.000173807 -0.000285826 0)
(0.000202201 -0.000303205 0)
(0.000232468 -0.000318516 0)
(0.000264607 -0.00033155 0)
(0.000298653 -0.000342043 0)
(0.000334697 -0.000349663 0)
(0.000372911 -0.000353994 0)
(0.000413581 -0.000354535 0)
(0.000457156 -0.000350714 0)
(0.000504292 -0.00034192 0)
(0.000555903 -0.000327574 0)
(0.000613196 -0.000307238 0)
(0.000677667 -0.000280756 0)
(0.000751054 -0.000248435 0)
(5.7328e-07 -1.0437e-05 0)
(4.22732e-06 -4.74358e-05 0)
(1.07269e-05 -8.11206e-05 0)
(1.99901e-05 -0.000110928 0)
(3.18486e-05 -0.000138839 0)
(4.61697e-05 -0.000166066 0)
(6.28373e-05 -0.000192986 0)
(8.17467e-05 -0.000219444 0)
(0.000102811 -0.000245074 0)
(0.000125957 -0.000269503 0)
(0.000151126 -0.000292429 0)
(0.00017827 -0.000313626 0)
(0.000207359 -0.000332917 0)
(0.000238382 -0.000350138 0)
(0.00027136 -0.000365111 0)
(0.000306354 -0.000377624 0)
(0.000343482 -0.000387413 0)
(0.000382946 -0.00039416 0)
(0.000425052 -0.000397498 0)
(0.000470248 -0.000397024 0)
(0.000519155 -0.000392339 0)
(0.000572596 -0.000383102 0)
(0.00063161 -0.000369117 0)
(0.000697436 -0.000350441 0)
(0.000771463 -0.000327498 0)
(5.73133e-07 -1.27559e-05 0)
(4.26571e-06 -5.26278e-05 0)
(1.08781e-05 -8.91007e-05 0)
(2.03292e-05 -0.000121603 0)
(3.24512e-05 -0.000152085 0)
(4.71009e-05 -0.000181752 0)
(6.41504e-05 -0.000210994 0)
(8.34852e-05 -0.000239671 0)
(0.000105008 -0.000267437 0)
(0.000128642 -0.000293933 0)
(0.000154326 -0.000318873 0)
(0.000182014 -0.000342047 0)
(0.000211683 -0.000363298 0)
(0.000243334 -0.000382492 0)
(0.000276998 -0.000399488 0)
(0.000312755 -0.000414124 0)
(0.000350738 -0.000426208 0)
(0.000391161 -0.000435512 0)
(0.000434331 -0.000441784 0)
(0.000480676 -0.000444767 0)
(0.000530766 -0.000444227 0)
(0.000585325 -0.000440004 0)
(0.000645238 -0.000432076 0)
(0.000711526 -0.000420635 0)
(0.000785297 -0.000406171 0)
(5.70424e-07 -1.50854e-05 0)
(4.28698e-06 -5.78871e-05 0)
(1.09826e-05 -9.72139e-05 0)
(2.05806e-05 -0.000132481 0)
(3.29113e-05 -0.000165598 0)
(4.78249e-05 -0.000197761 0)
(6.51834e-05 -0.000229367 0)
(8.4861e-05 -0.000260299 0)
(0.000106754 -0.000290228 0)
(0.000130779 -0.000318816 0)
(0.000156873 -0.000345794 0)
(0.000184991 -0.000370973 0)
(0.000215114 -0.000394219 0)
(0.000247247 -0.00041543 0)
(0.000281431 -0.000434504 0)
(0.000317752 -0.00045133 0)
(0.000356349 -0.000465781 0)
(0.000397433 -0.000477713 0)
(0.000441299 -0.000486974 0)
(0.000488343 -0.000493425 0)
(0.000539074 -0.000496963 0)
(0.00059412 -0.000497562 0)
(0.000654224 -0.000495324 0)
(0.000720222 -0.000490527 0)
(0.000792996 -0.000483685 0)
(5.6535e-07 -1.74168e-05 0)
(4.29041e-06 -6.31911e-05 0)
(1.10411e-05 -0.000105424 0)
(2.0742e-05 -0.000143511 0)
(3.32263e-05 -0.000179317 0)
(4.83369e-05 -0.000214019 0)
(6.59266e-05 -0.000248026 0)
(8.58616e-05 -0.000281238 0)
(0.00010803 -0.000313351 0)
(0.000132343 -0.000344047 0)
(0.000158735 -0.000373078 0)
(0.00018716 -0.000400278 0)
(0.0002176 -0.000425539 0)
(0.000250062 -0.00044879 0)
(0.000284588 -0.000469969 0)
(0.000321264 -0.000489015 0)
(0.000360226 -0.00050586 0)
(0.000401675 -0.000520432 0)
(0.000445881 -0.000532667 0)
(0.0004932 -0.000542519 0)
(0.000544078 -0.000549988 0)
(0.000599049 -0.00055515 0)
(0.000658731 -0.000558187 0)
(0.000723801 -0.000559433 0)
(0.000794959 -0.000559404 0)
(5.582e-07 -1.97408e-05 0)
(4.27717e-06 -6.85172e-05 0)
(1.10525e-05 -0.000113695 0)
(2.08139e-05 -0.000154646 0)
(3.33945e-05 -0.00019318 0)
(4.86331e-05 -0.000230456 0)
(6.63751e-05 -0.000266888 0)
(8.64776e-05 -0.000302398 0)
(0.000108823 -0.000336706 0)
(0.000133317 -0.000369517 0)
(0.000159889 -0.000400605 0)
(0.000188493 -0.000429829 0)
(0.000219106 -0.000457108 0)
(0.000251734 -0.000482402 0)
(0.000286419 -0.000505687 0)
(0.000323237 -0.000526948 0)
(0.000362317 -0.00054617 0)
(0.000403839 -0.000563346 0)
(0.000448046 -0.000578481 0)