/*--------------------------------*- C++ -*----------------------------------*\
  =========                 |
  \\      /  F ield         | OpenFOAM: The Open Source CFD Toolbox
   \\    /   O peration     | Website:  https://openfoam.org
    \\  /    A nd           | Version:  13
     \\/     M anipulation  |
\*---------------------------------------------------------------------------*/
FoamFile
{
    format      ascii;
    class       volScalarField;
    location    "30";
    object      p;
}
// * * * * * * * * * * * * * * * * * * * * * * * * * * * * * * * * * * * * * //

dimensions      [0 2 -2 0 0 0 0];

internalField   nonuniform List<scalar> 
6440
(
-0.000158528
-0.000158698
-0.000159104
-0.000159718
-0.000160517
-0.000161437
-0.000162395
-0.000163308
-0.000164085
-0.000164633
-0.000164864
-0.000164701
-0.000164085
-0.000162985
-0.000161401
-0.000159358
-0.000156926
-0.00015418
-0.000151209
-0.000148103
-0.000144911
-0.00014167
-0.000138496
-0.000135402
-0.000132724
-0.000157472
-0.00015766
-0.000158086
-0.000158741
-0.000159602
-0.000160614
-0.000161708
-0.00016281
-0.000163833
-0.000164684
-0.000165267
-0.000165485
-0.000165251
-0.000164493
-0.000163167
-0.000161253
-0.000158732
-0.000155616
-0.000151969
-0.000147845
-0.000143329
-0.000138503
-0.000133558
-0.000128677
-0.000124258
-0.000155809
-0.000156066
-0.000156587
-0.000157378
-0.000158417
-0.000159654
-0.000161034
-0.00016247
-0.000163873
-0.00016514
-0.000166158
-0.00016681
-0.000166981
-0.000166564
-0.000165464
-0.000163601
-0.000160904
-0.000157347
-0.000152977
-0.00014786
-0.000142096
-0.000135822
-0.000129318
-0.000123006
-0.000117532
-0.000153512
-0.000153854
-0.000154506
-0.000155481
-0.000156756
-0.000158275
-0.000159984
-0.000161796
-0.00016361
-0.000165309
-0.000166769
-0.000167852
-0.000168419
-0.000168328
-0.000167444
-0.000165653
-0.00016285
-0.000158944
-0.000153994
-0.000148066
-0.000141282
-0.000133816
-0.00012601
-0.000118492
-0.0001121
-0.000150444
-0.000150873
-0.000151665
-0.000152838
-0.000154365
-0.000156184
-0.000158227
-0.000160427
-0.000162661
-0.000164804
-0.000166719
-0.000168255
-0.00016925
-0.000169539
-0.000168955
-0.000167349
-0.000164593
-0.000160551
-0.000155229
-0.000148714
-0.000141126
-0.000132647
-0.000123682
-0.000115006
-0.000107672
-0.00014652
-0.000147035
-0.000147967
-0.000149342
-0.000151125
-0.000153251
-0.000155644
-0.000158216
-0.000160878
-0.000163477
-0.000165866
-0.000167886
-0.000169362
-0.000170109
-0.000169936
-0.00016866
-0.000166124
-0.000162183
-0.000156712
-0.000149823
-0.000141617
-0.000132267
-0.000122223
-0.000112398
-0.000104104
-0.000141707
-0.000142305
-0.000143377
-0.000144954
-0.000146996
-0.000149433
-0.000152181
-0.000155145
-0.000158228
-0.000161288
-0.000164165
-0.000166697
-0.000168701
-0.000169979
-0.000170322
-0.000169519
-0.000167372
-0.000163711
-0.000158348
-0.000151275
-0.000142616
-0.000132511
-0.000121434
-0.00011046
-0.000101183
-0.000136001
-0.000136679
-0.000137888
-0.000139665
-0.000141966
-0.000144715
-0.000147822
-0.000151182
-0.000154677
-0.00015822
-0.000161601
-0.000164665
-0.000167232
-0.000169097
-0.000170041
-0.000169828
-0.000168221
-0.000165003
-0.000159968
-0.000152901
-0.000143939
-0.000133196
-0.000121115
-0.000109017
-9.87476e-05
-0.000129423
-0.000130174
-0.000131512
-0.000133482
-0.000136037
-0.000139095
-0.000142563
-0.000146331
-0.000150275
-0.000154277
-0.000158171
-0.000161779
-0.000164927
-0.000167413
-0.000169015
-0.00016948
-0.000168541
-0.000165924
-0.000161371
-0.000154584
-0.000145505
-0.000134265
-0.000121275
-0.000108045
-9.67599e-05
-0.000122009
-0.000122821
-0.000124276
-0.000126424
-0.000129215
-0.00013257
-0.000136391
-0.000140563
-0.000144956
-0.000149426
-0.000153851
-0.000158016
-0.000161755
-0.000164879
-0.00016717
-0.000168374
-0.000168202
-0.000166331
-0.000162434
-0.000156169
-0.000147199
-0.000135643
-0.000121868
-0.000107519
-9.51752e-05
-0.000113813
-0.000114672
-0.000116221
-0.00011852
-0.000121518
-0.00012514
-0.00012929
-0.000133852
-0.000138692
-0.000143658
-0.000148607
-0.000153334
-0.000157674
-0.000161444
-0.000164439
-0.000166417
-0.000167082
-0.000166082
-0.00016302
-0.000157472
-0.000148894
-0.000137235
-0.000122823
-0.000107338
-9.39594e-05
-0.000104909
-0.000105794
-0.000107407
-0.000109814
-0.00011297
-0.000116807
-0.000121237
-0.00012615
-0.000131412
-0.000136871
-0.000142336
-0.000147643
-0.000152604
-0.000157037
-0.000160751
-0.000163523
-0.000165074
-0.000165043
-0.000162977
-0.000158344
-0.000150524
-0.000139065
-0.000124201
-0.000107749
-9.32829e-05
-9.53909e-05
-9.62786e-05
-9.7915e-05
-0.000100374
-0.000103618
-0.00010759
-0.000112217
-0.0001174
-0.000123018
-0.000128918
-0.000134883
-0.00014078
-0.000146393
-0.00015153
-0.000156002
-0.000159606
-0.000162091
-0.00016311
-0.000162187
-0.000158715
-0.000151948
-0.000141095
-0.000126126
-0.000108877
-9.32993e-05
-8.53764e-05
-8.62381e-05
-8.78494e-05
-9.02901e-05
-9.35324e-05
-9.75327e-05
-0.000102234
-0.000107559
-0.000113403
-0.00011961
-0.000126024
-0.000132493
-0.000138761
-0.000144669
-0.000150004
-0.000154542
-0.000158042
-0.000160187
-0.00016052
-0.000158443
-0.000153058
-0.000143295
-0.000128664
-0.000110804
-9.42264e-05
-7.50046e-05
-7.581e-05
-7.73421e-05
-7.96842e-05
-8.28185e-05
-8.67174e-05
-9.13394e-05
-9.66268e-05
-0.000102505
-0.000108813
-0.00011547
-0.000122366
-0.000129302
-0.000136051
-0.000142366
-0.000147996
-0.000152676
-0.000156119
-0.000157922
-0.00015747
-0.000153815
-0.000145675
-0.000131986
-0.000113984
-9.65198e-05
-6.44342e-05
-6.51526e-05
-6.65497e-05
-6.87066e-05
-7.16155e-05
-7.52699e-05
-7.96409e-05
-8.46568e-05
-9.0262e-05
-9.63997e-05
-0.000103069
-0.00011017
-0.00011757
-0.000125066
-0.000132414
-0.000139306
-0.000145415
-0.00015048
-0.000154052
-0.000155565
-0.000154104
-0.000148251
-0.000136413
-0.000119133
-0.00010121
-5.38398e-05
-5.44425e-05
-5.5657e-05
-5.75541e-05
-6.01356e-05
-6.3368e-05
-6.72595e-05
-7.17604e-05
-7.68141e-05
-8.25075e-05
-8.88184e-05
-9.57099e-05
-0.000103127
-0.000110981
-0.000119105
-0.000127245
-0.00013509
-0.000142214
-0.000148034
-0.000152118
-0.000153589
-0.000151027
-0.000142496
-0.000127553
-0.000110028
-4.3409e-05
-4.38843e-05
-4.48674e-05
-4.64076e-05
-4.85215e-05
-5.12005e-05
-5.44161e-05
-5.81193e-05
-6.24245e-05
-6.73327e-05
-7.28665e-05
-7.90565e-05
-8.59345e-05
-9.35012e-05
-0.000101747
-0.000110578
-0.000119782
-0.000129065
-0.000137934
-0.000145515
-0.000151282
-0.00015379
-0.000150897
-0.000141287
-0.000126156
-3.33263e-05
-3.36566e-05
-3.43505e-05
-3.54868e-05
-3.70637e-05
-3.90557e-05
-4.14085e-05
-4.42264e-05
-4.75314e-05
-5.13561e-05
-5.57572e-05
-6.0811e-05
-6.6603e-05
-7.31674e-05
-8.06259e-05
-8.9118e-05
-9.86748e-05
-0.000109236
-0.000120724
-0.000132824
-0.000144378
-0.000154717
-0.000161304
-0.000162234
-0.000155582
-2.37396e-05
-2.3916e-05
-2.43441e-05
-2.50866e-05
-2.61096e-05
-2.74125e-05
-2.90632e-05
-3.10521e-05
-3.33841e-05
-3.61002e-05
-3.92545e-05
-4.29151e-05
-4.71782e-05
-5.22521e-05
-5.83331e-05
-6.56036e-05
-7.41953e-05
-8.44951e-05
-9.66607e-05
-0.000111159
-0.000128627
-0.000148073
-0.000169625
-0.000192065
-0.000214104
-1.47298e-05
-1.48181e-05
-1.50948e-05
-1.56064e-05
-1.63619e-05
-1.73583e-05
-1.86067e-05
-2.01186e-05
-2.19152e-05
-2.40349e-05
-2.65322e-05
-2.94807e-05
-3.29816e-05
-3.71777e-05
-4.22224e-05
-4.83441e-05
-5.59991e-05
-6.55814e-05
-7.75301e-05
-9.25594e-05
-0.00011157
-0.00013581
-0.000169183
-0.000221897
-0.000324125
-6.07992e-06
-6.15481e-06
-6.41392e-06
-6.9053e-06
-7.63356e-06
-8.59926e-06
-9.80927e-06
-1.12778e-05
-1.30288e-05
-1.50999e-05
-1.75457e-05
-2.04417e-05
-2.3891e-05
-2.80295e-05
-3.30282e-05
-3.9117e-05
-4.66191e-05
-5.59007e-05
-6.77375e-05
-8.28682e-05
-0.000102211
-0.000127779
-0.00016341
-0.000216245
-0.000295865
2.22713e-06
2.15064e-06
1.88619e-06
1.38375e-06
6.39928e-07
-3.47118e-07
-1.58422e-06
-3.08527e-06
-4.87363e-06
-6.98563e-06
-9.47441e-06
-1.24144e-05
-1.59067e-05
-2.00841e-05
-2.5118e-05
-3.12314e-05
-3.87171e-05
-4.79541e-05
-5.94916e-05
-7.40035e-05
-9.24778e-05
-0.000116342
-0.000147785
-0.000189282
-0.000240631
1.01997e-05
1.01213e-05
9.85418e-06
9.34699e-06
8.59637e-06
7.60053e-06
6.35374e-06
4.84379e-06
3.04966e-06
9.38132e-07
-1.53989e-06
-4.45352e-06
-7.89608e-06
-1.19895e-05
-1.68898e-05
-2.27952e-05
-2.99574e-05
-3.86929e-05
-4.94072e-05
-6.26017e-05
-7.89111e-05
-9.90937e-05
-0.00012389
-0.00015331
-0.000184794
1.78422e-05
1.77653e-05
1.75037e-05
1.70058e-05
1.62689e-05
1.5292e-05
1.40714e-05
1.25976e-05
1.08532e-05
8.81015e-06
6.42579e-06
3.64005e-06
3.722e-07
-3.48192e-06
-8.05273e-06
-1.35006e-05
-2.00194e-05
-2.78388e-05
-3.72256e-05
-4.84709e-05
-6.18654e-05
-7.76171e-05
-9.5623e-05
-0.000114969
-0.000133231
2.51593e-05
2.50874e-05
2.48394e-05
2.43641e-05
2.36599e-05
2.27277e-05
2.15662e-05
2.01695e-05
1.8525e-05
1.66109e-05
1.43932e-05
1.18233e-05
8.83636e-06
5.35025e-06
1.26522e-06
-3.53541e-06
-9.18307e-06
-1.58182e-05
-2.35785e-05
-3.25728e-05
-4.28353e-05
-5.42326e-05
-6.62896e-05
-7.79251e-05
-8.72508e-05
3.21545e-05
3.20913e-05
3.18642e-05
3.14235e-05
3.07693e-05
2.99045e-05
2.88309e-05
2.75467e-05
2.60447e-05
2.43104e-05
2.23196e-05
2.00366e-05
1.74141e-05
1.43935e-05
1.09066e-05
6.88017e-06
2.24113e-06
-3.07232e-06
-9.09351e-06
-1.57983e-05
-2.30592e-05
-3.05733e-05
-3.77559e-05
-4.36227e-05
-4.6759e-05
3.88304e-05
3.87789e-05
3.85792e-05
3.81837e-05
3.75942e-05
3.68163e-05
3.58548e-05
3.47123e-05
3.33875e-05
3.18736e-05
3.01564e-05
2.82137e-05
2.60154e-05
2.35258e-05
2.07067e-05
1.75232e-05
1.39517e-05
9.99224e-06
5.68652e-06
1.14375e-06
-3.42318e-06
-7.64967e-06
-1.09637e-05
-1.2543e-05
-1.13331e-05
4.51876e-05
4.51507e-05
4.49839e-05
4.46422e-05
4.41299e-05
4.34545e-05
4.26245e-05
4.16467e-05
4.05257e-05
3.92622e-05
3.78518e-05
3.6285e-05
3.4548e-05
3.26256e-05
3.05056e-05
2.81847e-05
2.56777e-05
2.30289e-05
2.03283e-05
1.77317e-05
1.54861e-05
1.39579e-05
1.36581e-05
1.52507e-05
1.95247e-05
5.12257e-05
5.12054e-05
5.10759e-05
5.07952e-05
5.03694e-05
4.98087e-05
4.91245e-05
4.8328e-05
4.74293e-05
4.64359e-05
4.53526e-05
4.41811e-05
4.29221e-05
4.15777e-05
4.01566e-05
3.86799e-05
3.71898e-05
3.57593e-05
3.45054e-05
3.36033e-05
3.33031e-05
3.39435e-05
3.59612e-05
3.98852e-05
4.63102e-05
5.69431e-05
5.6941e-05
5.68521e-05
5.66373e-05
5.63048e-05
5.58671e-05
5.53384e-05
5.47337e-05
5.4068e-05
5.3355e-05
5.26074e-05
5.18365e-05
5.10547e-05
5.02783e-05
4.95317e-05
4.88535e-05
4.83036e-05
4.79713e-05
4.79851e-05
4.85223e-05
4.98182e-05
5.21726e-05
5.59499e-05
6.15692e-05
6.94817e-05
6.23377e-05
6.23549e-05
6.23085e-05
6.21629e-05
6.19278e-05
6.16179e-05
6.12497e-05
6.08417e-05
6.04128e-05
5.99821e-05
5.95686e-05
5.91916e-05
5.88726e-05
5.86383e-05
5.85245e-05
5.85811e-05
5.8878e-05
5.95116e-05
6.06115e-05
6.23463e-05
6.49286e-05
6.86165e-05
7.371e-05
8.05403e-05
8.94518e-05
6.74072e-05
6.74442e-05
6.74413e-05
6.73662e-05
6.72303e-05
6.70496e-05
6.6843e-05
6.66314e-05
6.64372e-05
6.62836e-05
6.61944e-05
6.6195e-05
6.63138e-05
6.65846e-05
6.70506e-05
6.77679e-05
6.88109e-05
7.02765e-05
7.22885e-05
7.50016e-05
7.86027e-05
8.331e-05
8.93684e-05
9.70393e-05
0.000106586
7.21494e-05
7.22063e-05
7.22468e-05
7.2242e-05
7.22047e-05
7.21519e-05
7.21044e-05
7.20849e-05
7.21182e-05
7.22305e-05
7.24494e-05
7.28045e-05
7.33286e-05
7.40603e-05
7.50464e-05
7.63461e-05
7.80335e-05
8.02019e-05
8.29659e-05
8.64633e-05
9.08556e-05
9.63252e-05
0.00010307
0.000111297
0.000121208
7.65628e-05
7.6639e-05
7.6722e-05
7.67861e-05
7.68448e-05
7.69163e-05
7.70223e-05
7.71869e-05
7.74365e-05
7.77994e-05
7.83055e-05
7.89869e-05
7.98792e-05
8.10232e-05
8.24674e-05
8.42706e-05
8.65042e-05
8.92552e-05
9.26269e-05
9.67403e-05
0.000101733
0.000107755
0.000114967
0.000123531
0.000133602
8.06464e-05
8.07412e-05
8.08651e-05
8.09952e-05
8.1146e-05
8.13361e-05
8.15877e-05
8.19258e-05
8.23776e-05
8.29723e-05
8.37413e-05
8.47179e-05
8.59387e-05
8.74452e-05
8.92853e-05
9.15157e-05
9.42035e-05
9.74276e-05
0.00010128
0.000105864
0.000111297
0.000117702
0.000125207
0.000133939
0.000144017
8.44005e-05
8.45128e-05
8.46752e-05
8.48678e-05
8.51054e-05
8.54069e-05
8.57944e-05
8.62933e-05
8.69309e-05
8.77368e-05
8.87425e-05
8.99815e-05
9.14904e-05
9.33097e-05
9.54858e-05
9.80717e-05
0.000101129
0.000104728
0.00010895
0.000113883
0.000119624
0.000126273
0.000133934
0.000142705
0.000152675
8.78265e-05
8.79549e-05
8.81531e-05
8.84039e-05
8.87221e-05
8.91264e-05
8.9639e-05
9.02847e-05
9.10905e-05
9.20856e-05
9.33009e-05
9.47693e-05
9.65262e-05
9.86107e-05
0.000101066
0.000103941
0.000107292
0.00011118
0.000115676
0.000120853
0.000126792
0.000133576
0.000141284
0.000149993
0.00015977
9.09269e-05
9.107e-05
9.1301e-05
9.1605e-05
9.19969e-05
9.2495e-05
9.31209e-05
9.38985e-05
9.48542e-05
9.60161e-05
9.7414e-05
9.90794e-05
0.000101046
0.00010335
0.000106032
0.000109137
0.000112713
0.000116815
0.000121502
0.000126837
0.000132886
0.000139714
0.000147384
0.000155956
0.000165478
9.3706e-05
9.3862e-05
9.41224e-05
9.44745e-05
9.49329e-05
9.55152e-05
9.62421e-05
9.71367e-05
9.82238e-05
9.95303e-05
0.000101084
0.000102916
0.000105056
0.000107538
0.000110399
0.000113679
0.000117421
0.000121671
0.000126481
0.000131901
0.000137986
0.000144787
0.000152354
0.000160731
0.000169953
9.61688e-05
9.63363e-05
9.66227e-05
9.70174e-05
9.75348e-05
9.81916e-05
9.90073e-05
0.000100004
0.000101204
0.000102634
0.000104319
0.000106286
0.000108566
0.000111188
0.000114185
0.000117593
0.000121448
0.000125792
0.000130665
0.000136111
0.000142172
0.000148891
0.000156304
0.000164443
0.000173334
9.83221e-05
9.84992e-05
9.88082e-05
9.92402e-05
9.98091e-05
0.000100531
0.000101423
0.000102507
0.000103803
0.000105335
0.000107127
0.000109204
0.000111593
0.00011432
0.000117415
0.000120909
0.000124833
0.000129222
0.00013411
0.000139533
0.000145523
0.000152115
0.000159334
0.000167206
0.000175744
0.000100174
0.000100359
0.000100687
0.000101151
0.000101764
0.000102541
0.000103498
0.000104655
0.000106031
0.000107646
0.000109523
0.000111685
0.000114154
0.000116956
0.000120115
0.000123658
0.000127613
0.000132008
0.000136871
0.00014223
0.000148112
0.000154542
0.00016154
0.000169121
0.000177294
0.000101732
0.000101924
0.000102268
0.000102759
0.000103409
0.000104232
0.000105244
0.00010646
0.0001079
0.000109581
0.000111523
0.000113746
0.000116272
0.00011912
0.000122314
0.000125876
0.000129829
0.000134196
0.000139001
0.000144265
0.000150009
0.000156252
0.000163007
0.000170283
0.000178086
0.000103008
0.000103204
0.000103561
0.000104074
0.000104755
0.000105616
0.000106671
0.000107935
0.000109424
0.000111154
0.000113143
0.000115408
0.000117967
0.000120839
0.000124043
0.000127596
0.00013152
0.000135832
0.000140552
0.000145695
0.000151279
0.000157315
0.000163813
0.000170777
0.000178207
0.000104011
0.000104211
0.000104577
0.000105108
0.000105813
0.000106704
0.000107793
0.000109093
0.000110618
0.000112383
0.000114403
0.000116691
0.000119265
0.00012214
0.000125331
0.000128854
0.000132726
0.000136961
0.000141574
0.000146578
0.000151983
0.000157799
0.000164031
0.000170679
0.00017774
0.000104754
0.000104956
0.000105329
0.000105873
0.000106596
0.00010751
0.000108624
0.00010995
0.0001115
0.000113286
0.000115321
0.000117618
0.000120189
0.000123049
0.000126209
0.000129684
0.000133485
0.000137625
0.000142115
0.000146964
0.000152179
0.000157766
0.000163727
0.000170059
0.000176756
0.000105248
0.00010545
0.000105828
0.000106381
0.000107118
0.000108047
0.000109178
0.00011052
0.000112085
0.000113881
0.000115919
0.00011821
0.000120765
0.000123594
0.000126709
0.000130119
0.000133835
0.000137866
0.00014222
0.000146903
0.000151919
0.000157272
0.00016296
0.000168979
0.000175321
0.000105505
0.000105707
0.000106087
0.000106646
0.000107391
0.00010833
0.000109471
0.000110822
0.000112391
0.000114186
0.000116216
0.00011849
0.000121016
0.000123803
0.000126859
0.000130193
0.000133812
0.000137722
0.00014193
0.00014644
0.000151253
0.000156369
0.000161786
0.000167497
0.000173493
0.000105539
0.00010574
0.00010612
0.000106681
0.00010743
0.000108374
0.000109518
0.00011087
0.000112435
0.000114221
0.000116234
0.00011848
0.000120967
0.000123701
0.000126688
0.000129936
0.000133448
0.000137231
0.000141287
0.000145618
0.000150225
0.000155105
0.000160253
0.000165664
0.000171325
0.000105362
0.000105561
0.00010594
0.000106501
0.00010725
0.000108193
0.000109335
0.000110681
0.000112236
0.000114005
0.000115992
0.000118203
0.000120642
0.000123314
0.000126225
0.000129378
0.000132778
0.000136426
0.000140326
0.000144476
0.000148876
0.000153522
0.000158408
0.000163527
0.000168866
0.000104988
0.000105184
0.00010556
0.000106118
0.000106864
0.000107803
0.000108938
0.000110273
0.000111811
0.000113556
0.000115511
0.000117679
0.000120063
0.000122667
0.000125495
0.000128548
0.00013183
0.000135341
0.000139082
0.000143051
0.000147246
0.000151662
0.000156292
0.000161127
0.000166156
0.00010443
0.000104623
0.000104994
0.000105547
0.000106287
0.000107218
0.000108341
0.000109661
0.000111177
0.000112893
0.00011481
0.000116929
0.000119254
0.000121784
0.000124524
0.000127474
0.000130634
0.000134006
0.000137588
0.000141377
0.000145369
0.00014956
0.000153941
0.000158504
0.000163236
0.000103701
0.00010389
0.000104255
0.000104802
0.000105533
0.000106453
0.000107561
0.000108861
0.000110351
0.000112034
0.000113908
0.000115974
0.000118234
0.000120688
0.000123336
0.00012618
0.000129218
0.000132449
0.000135872
0.000139483
0.000143278
0.000147249
0.00015139
0.00015569
0.000160138
0.000102814
0.000102999
0.000103358
0.000103895
0.000104616
0.000105522
0.000106613
0.000107889
0.00010935
0.000110995
0.000112823
0.000114833
0.000117025
0.000119399
0.000121954
0.00012469
0.000127605
0.000130697
0.000133963
0.000137399
0.000141001
0.00014476
0.000148669
0.000152718
0.000156896
0.000101783
0.000101962
0.000102313
0.000102842
0.00010355
0.00010444
0.00010551
0.000106761
0.000108189
0.000109794
0.000111573
0.000113525
0.000115647
0.000117939
0.0001204
0.000123027
0.000125819
0.000128773
0.000131885
0.000135152
0.000138565
0.00014212
0.000145807
0.000149616
0.000153535
0.000100619
0.000100793
0.000101136
0.000101654
0.000102348
0.00010322
0.000104268
0.000105491
0.000106884
0.000108447
0.000110175
0.000112066
0.000114117
0.000116327
0.000118693
0.000121212
0.000123883
0.000126701
0.000129663
0.000132764
0.000135996
0.000139354
0.000142828
0.000146407
0.000150082
9.93343e-05
9.95032e-05
9.98379e-05
0.000100344
0.000101024
0.000101876
0.0001029
0.000104093
0.000105451
0.000106969
0.000108645
0.000110474
0.000112454
0.000114581
0.000116852
0.000119265
0.000121817
0.000124503
0.000127318
0.000130258
0.000133316
0.000136485
0.000139755
0.000143116
0.000146559
9.79421e-05
9.81055e-05
9.84312e-05
9.89249e-05
9.95888e-05
0.000100421
0.00010142
0.000102582
0.000103902
0.000105376
0.000106999
0.000108766
0.000110673
0.000112718
0.000114896
0.000117205
0.000119639
0.000122196
0.00012487
0.000127656
0.000130546
0.000133533
0.000136609
0.000139763
0.000142986
9.64534e-05
9.66112e-05
9.69277e-05
9.74089e-05
9.80562e-05
9.8868e-05
9.9841e-05
0.000100971
0.000102253
0.000103681
0.00010525
0.000106955
0.000108791
0.000110755
0.000112841
0.000115047
0.000117369
0.0001198
0.000122337
0.000124974
0.000127703
0.000130517
0.000133408
0.000136367
0.000139382
9.48795e-05
9.50319e-05
9.5339e-05
9.58073e-05
9.64377e-05
9.7228e-05
9.81745e-05
9.92723e-05
0.000100516
0.000101898
0.000103414
0.000105057
0.000106823
0.000108706
0.000110703
0.00011281
0.000115021
0.000117331
0.000119737
0.00012223
0.000124806
0.000127455
0.000130171
0.000132943
0.000135762
9.32314e-05
9.33784e-05
9.36761e-05
9.41313e-05
9.47445e-05
9.55132e-05
9.6433e-05
9.74983e-05
9.87029e-05
0.00010004
0.000101503
0.000103085
0.000104782
0.000106587
0.000108497
0.000110506
0.000112611
0.000114805
0.000117084
0.000119441
0.00012187
0.000124363
0.000126912
0.000129508
0.000132142
9.15196e-05
9.16612e-05
9.19497e-05
9.23917e-05
9.29877e-05
9.37346e-05
9.46276e-05
9.56606e-05
9.68268e-05
9.81188e-05
9.95296e-05
0.000101052
0.000102681
0.00010441
0.000106235
0.000108151
0.000110153
0.000112235
0.000114393
0.00011662
0.000118909
0.000121253
0.000123644
0.000126075
0.000128534
8.97541e-05
8.98906e-05
9.01698e-05
9.05989e-05
9.11777e-05
9.1903e-05
9.27693e-05
9.37703e-05
9.48985e-05
9.61462e-05
9.75058e-05
9.89702e-05
0.000100533
0.000102189
0.000103932
0.000105757
0.00010766
0.000109636
0.000111677
0.00011378
0.000115936
0.000118139
0.000120382
0.000122655
0.000124951
8.79446e-05
8.80761e-05
8.83464e-05
8.87627e-05
8.93246e-05
9.00284e-05
9.08684e-05
9.18378e-05
9.29288e-05
9.41331e-05
9.54428e-05
9.68504e-05
9.83493e-05
9.99335e-05
0.000101598
0.000103337
0.000105145
0.000107018
0.000108949
0.000110933
0.000112964
0.000115033
0.000117135
0.000119261
0.000121402
8.61004e-05
8.62272e-05
8.64888e-05
8.68925e-05
8.74378e-05
8.81206e-05
8.89348e-05
8.98733e-05
9.09278e-05
9.20898e-05
9.33509e-05
9.47035e-05
9.61406e-05
9.7656e-05
9.92443e-05
0.0001009
0.000102618
0.000104393
0.000106219
0.000108091
0.000110002
0.000111946
0.000113915
0.000115902
0.000117899
8.42304e-05
8.43527e-05
8.46059e-05
8.49975e-05
8.55266e-05
8.61888e-05
8.69778e-05
8.78861e-05
8.89051e-05
9.00261e-05
9.12402e-05
9.25396e-05
9.39171e-05
9.53664e-05
9.68818e-05
9.8458e-05
0.00010009
0.000101772
0.000103498
0.000105263
0.000107062
0.000108886
0.00011073
0.000112587
0.000114448
8.23428e-05
8.2461e-05
8.27063e-05
8.30861e-05
8.35995e-05
8.42418e-05
8.50063e-05
8.58853e-05
8.687e-05
8.79512e-05
8.91199e-05
9.03681e-05
9.16884e-05
9.30742e-05
9.452e-05
9.60202e-05
9.75696e-05
9.91629e-05
0.000100795
0.000102459
0.000104151
0.000105863
0.00010759
0.000109324
0.000111057
8.0446e-05
8.05603e-05
8.07981e-05
8.11667e-05
8.16649e-05
8.22879e-05
8.30288e-05
8.38795e-05
8.48309e-05
8.58738e-05
8.69989e-05
8.81978e-05
8.94631e-05
9.07883e-05
9.21675e-05
9.35953e-05
9.50665e-05
9.65758e-05
9.81179e-05
9.96874e-05
0.000101278
0.000102885
0.000104501
0.00010612
0.000107734
7.85474e-05
7.86583e-05
7.88891e-05
7.92469e-05
7.97306e-05
8.03351e-05
8.10532e-05
8.18766e-05
8.27961e-05
8.38021e-05
8.48852e-05
8.6037e-05
8.72498e-05
8.8517e-05
8.98328e-05
9.11917e-05
9.25886e-05
9.40183e-05
9.54756e-05
9.69552e-05
9.84514e-05
9.99587e-05
0.000101471
0.000102982
0.000104485
7.66544e-05
7.67623e-05
7.69866e-05
7.73343e-05
7.78042e-05
7.83908e-05
7.90871e-05
7.98844e-05
8.07732e-05
8.17438e-05
8.27868e-05
8.38934e-05
8.50561e-05
8.62681e-05
8.75235e-05
8.8817e-05
9.01434e-05
9.14978e-05
9.28749e-05
9.42697e-05
9.56767e-05
9.70906e-05
9.85054e-05
9.99154e-05
0.000101314
7.4774e-05
7.48793e-05
7.50976e-05
7.54359e-05
7.58926e-05
7.64624e-05
7.71378e-05
7.791e-05
7.87694e-05
7.97062e-05
8.07108e-05
8.17744e-05
8.28892e-05
8.40486e-05
8.52467e-05
8.64782e-05
8.77379e-05
8.9021e-05
9.03225e-05
9.16374e-05
9.29606e-05
9.42867e-05
9.56104e-05
9.6926e-05
9.82277e-05
7.29126e-05
7.30158e-05
7.32288e-05
7.35583e-05
7.40027e-05
7.45564e-05
7.52119e-05
7.59603e-05
7.67917e-05
7.76962e-05
7.86642e-05
7.96867e-05
8.0756e-05
8.18654e-05
8.30091e-05
8.41818e-05
8.53784e-05
8.65943e-05
8.78245e-05
8.90642e-05
9.03086e-05
9.15524e-05
9.27907e-05
9.40181e-05
9.52291e-05
7.10765e-05
7.11782e-05
7.13865e-05
7.1708e-05
7.21408e-05
7.26794e-05
7.33161e-05
7.40417e-05
7.48464e-05
7.57202e-05
7.66533e-05
7.76367e-05
7.86627e-05
7.97247e-05
8.08169e-05
8.19339e-05
8.30709e-05
8.42233e-05
8.53863e-05
8.65554e-05
8.77257e-05
8.88926e-05
9.0051e-05
9.11959e-05
9.23223e-05
6.92717e-05
6.93724e-05
6.95769e-05
6.9891e-05
7.03131e-05
7.08375e-05
7.14563e-05
7.21604e-05
7.29398e-05
7.37843e-05
7.46841e-05
7.56304e-05
7.66154e-05
7.76324e-05
7.86756e-05
7.974e-05
8.08207e-05
8.19133e-05
8.30131e-05
8.41158e-05
8.52168e-05
8.63115e-05
8.73952e-05
8.84633e-05
8.95109e-05
6.75038e-05
6.76042e-05
6.78055e-05
6.81131e-05
6.85254e-05
6.90366e-05
6.96386e-05
7.03222e-05
7.10775e-05
7.18942e-05
7.27625e-05
7.36734e-05
7.46194e-05
7.55937e-05
7.65907e-05
7.76053e-05
7.86329e-05
7.96691e-05
8.07095e-05
8.17498e-05
8.27858e-05
8.3813e-05
8.4827e-05
8.58234e-05
8.67977e-05
6.57782e-05
6.58789e-05
6.60779e-05
6.63799e-05
6.67833e-05
6.72821e-05
6.78683e-05
6.85326e-05
6.92651e-05
7.00553e-05
7.08936e-05
7.1771e-05
7.26799e-05
7.36137e-05
7.45669e-05
7.55345e-05
7.6512e-05
7.74951e-05
7.84796e-05
7.94615e-05
8.04365e-05
8.14006e-05
8.23496e-05
8.32793e-05
8.41854e-05
6.41e-05
6.42019e-05
6.43995e-05
6.46967e-05
6.5092e-05
6.55794e-05
6.61509e-05
6.6797e-05
6.75077e-05
6.82728e-05
6.90825e-05
6.9928e-05
7.08017e-05
7.16972e-05
7.26088e-05
7.3532e-05
7.44621e-05
7.53952e-05
7.63273e-05
7.72543e-05
7.81724e-05
7.90775e-05
7.99659e-05
8.08335e-05
8.16763e-05
6.2474e-05
6.2578e-05
6.27752e-05
6.30687e-05
6.34568e-05
6.39337e-05
6.44913e-05
6.51202e-05
6.58103e-05
6.65514e-05
6.7334e-05
6.81491e-05
6.89893e-05
6.98483e-05
7.07206e-05
7.16017e-05
7.24872e-05
7.33732e-05
7.42559e-05
7.51315e-05
7.59963e-05
7.68464e-05
7.76783e-05
7.84881e-05
7.92722e-05
6.09051e-05
6.10122e-05
6.12101e-05
6.15008e-05
6.18827e-05
6.235e-05
6.28946e-05
6.35071e-05
6.41776e-05
6.48958e-05
6.56523e-05
6.64384e-05
6.72467e-05
6.8071e-05
6.8906e-05
6.97472e-05
7.05906e-05
7.14323e-05
7.22686e-05
7.3096e-05
7.39108e-05
7.47097e-05
7.54889e-05
7.62452e-05
7.69748e-05
5.93977e-05
5.95091e-05
5.97091e-05
5.99979e-05
6.03745e-05
6.08331e-05
6.13655e-05
6.19624e-05
6.2614e-05
6.33103e-05
6.40418e-05
6.48001e-05
6.55778e-05
6.6369e-05
6.71685e-05
6.79719e-05
6.87754e-05
6.95753e-05
7.0368e-05
7.11502e-05
7.19185e-05
7.26694e-05
7.33998e-05
7.41062e-05
7.47856e-05
5.79565e-05
5.80735e-05
5.82768e-05
5.8565e-05
5.89372e-05
5.93878e-05
5.99087e-05
6.04907e-05
6.1124e-05
6.1799e-05
6.25064e-05
6.32378e-05
6.39861e-05
6.47455e-05
6.55111e-05
6.62787e-05
6.70444e-05
6.78048e-05
6.85566e-05
6.92964e-05
7.00211e-05
7.07274e-05
7.14123e-05
7.20727e-05
7.27055e-05
5.65858e-05
5.67101e-05
5.69183e-05
5.72071e-05
5.75758e-05
5.8019e-05
5.85288e-05
5.90961e-05
5.97117e-05
6.03658e-05
6.10496e-05
6.17549e-05
6.24748e-05
6.32036e-05
6.39368e-05
6.46701e-05
6.54e-05
6.61231e-05
6.68363e-05
6.75364e-05
6.82203e-05
6.88852e-05
6.95279e-05
7.01456e-05
7.07354e-05
5.52902e-05
5.54237e-05
5.56387e-05
5.59292e-05
5.62951e-05
5.67314e-05
5.72303e-05
5.77832e-05
5.8381e-05
5.90145e-05
5.96749e-05
6.03545e-05
6.10467e-05
6.1746e-05
6.24479e-05
6.31484e-05
6.38442e-05
6.45321e-05
6.52089e-05
6.58717e-05
6.65177e-05
6.71439e-05
6.77475e-05
6.83258e-05
6.8876e-05
5.40744e-05
5.42195e-05
5.44433e-05
5.47368e-05
5.51006e-05
5.55302e-05
5.60181e-05
5.65562e-05
5.71358e-05
5.77484e-05
5.83854e-05
5.90395e-05
5.97044e-05
6.03749e-05
6.10465e-05
6.17156e-05
6.23788e-05
6.30332e-05
6.36758e-05
6.43037e-05
6.49142e-05
6.55045e-05
6.60719e-05
6.66138e-05
6.71277e-05
5.29434e-05
5.3103e-05
5.3338e-05
5.36358e-05
5.39979e-05
5.44204e-05
5.48967e-05
5.54191e-05
5.59799e-05
5.65707e-05
5.71839e-05
5.78124e-05
5.84501e-05
5.90922e-05
5.97343e-05
6.03731e-05
6.10053e-05
6.16279e-05
6.22382e-05
6.28333e-05
6.34107e-05
6.39676e-05
6.45016e-05
6.50101e-05
6.54907e-05
5.19029e-05
5.20805e-05
5.23295e-05
5.26328e-05
5.29931e-05
5.34077e-05
5.38709e-05
5.43762e-05
5.49166e-05
5.54845e-05
5.60729e-05
5.66752e-05
5.72856e-05
5.78994e-05
5.85128e-05
5.91221e-05
5.97245e-05
6.03169e-05
6.08967e-05
6.14612e-05
6.20077e-05
6.25338e-05
6.30369e-05
6.35147e-05
6.39649e-05
5.09594e-05
5.11595e-05
5.14258e-05
5.17354e-05
5.20931e-05
5.2498e-05
5.29459e-05
5.34315e-05
5.39491e-05
5.44922e-05
5.50544e-05
5.56294e-05
5.6212e-05
5.67977e-05
5.73826e-05
5.79634e-05
5.85371e-05
5.91008e-05
5.96519e-05
6.01877e-05
6.07056e-05
6.12031e-05
6.16779e-05
6.21276e-05
6.25501e-05
5.0121e-05
5.03493e-05
5.06366e-05
5.09527e-05
5.13058e-05
5.16977e-05
5.21265e-05
5.25887e-05
5.30803e-05
5.35958e-05
5.41296e-05
5.4676e-05
5.52301e-05
5.57874e-05
5.63442e-05
5.68972e-05
5.74434e-05
5.79799e-05
5.85039e-05
5.90129e-05
5.95043e-05
5.99756e-05
6.04244e-05
6.08486e-05
6.12461e-05
4.93984e-05
4.9662e-05
4.99742e-05
5.02959e-05
5.06403e-05
5.10138e-05
5.14177e-05
5.18513e-05
5.23122e-05
5.27965e-05
5.32993e-05
5.38153e-05
5.43398e-05
5.48684e-05
5.53974e-05
5.59234e-05
5.64432e-05
5.69538e-05
5.74526e-05
5.79367e-05
5.84036e-05
5.88509e-05
5.92762e-05
5.96773e-05
6.00522e-05
4.88067e-05
4.91144e-05
4.94551e-05
4.97788e-05
5.01071e-05
5.04537e-05
5.08243e-05
5.12218e-05
5.16461e-05
5.20945e-05
5.2563e-05
5.30466e-05
5.35404e-05
5.404e-05
5.45415e-05
5.50412e-05
5.55358e-05
5.60222e-05
5.64974e-05
5.69586e-05
5.74032e-05
5.78287e-05
5.82327e-05
5.86131e-05
5.89679e-05
4.83687e-05
4.87302e-05
4.91015e-05
4.94188e-05
4.97184e-05
5.00247e-05
5.035e-05
5.07015e-05
5.10815e-05
5.14887e-05
5.19191e-05
5.2368e-05
5.28301e-05
5.33006e-05
5.37751e-05
5.42495e-05
5.47203e-05
5.51841e-05
5.56376e-05
5.6078e-05
5.65024e-05
5.69083e-05
5.72933e-05
5.76553e-05
5.79923e-05
4.81209e-05
4.85455e-05
4.8944e-05
4.92379e-05
4.94875e-05
4.97335e-05
4.9997e-05
5.02897e-05
5.06162e-05
5.09758e-05
5.13644e-05
5.17765e-05
5.22061e-05
5.26477e-05
5.3096e-05
5.35466e-05
5.39953e-05
5.44383e-05
5.48722e-05
5.52939e-05
5.57003e-05
5.60889e-05
5.64572e-05
5.68031e-05
5.71246e-05
4.81272e-05
4.8616e-05
4.90256e-05
4.9263e-05
4.9428e-05
4.95845e-05
4.97639e-05
4.99822e-05
5.02448e-05
5.05503e-05
5.08936e-05
5.12675e-05
5.16646e-05
5.20781e-05
5.25017e-05
5.29302e-05
5.33588e-05
5.37833e-05
5.41999e-05
5.46051e-05
5.49959e-05
5.53695e-05
5.57234e-05
5.60554e-05
5.63636e-05
4.85045e-05
4.90307e-05
4.94045e-05
4.95242e-05
4.95502e-05
4.95763e-05
4.96439e-05
4.97697e-05
4.99574e-05
5.02035e-05
5.04993e-05
5.08348e-05
5.12005e-05
5.15876e-05
5.19888e-05
5.23977e-05
5.28088e-05
5.32174e-05
5.36192e-05
5.40105e-05
5.43881e-05
5.47491e-05
5.50909e-05
5.54113e-05
5.57084e-05
4.94586e-05
4.99228e-05
5.01541e-05
5.00503e-05
4.98557e-05
4.9698e-05
4.962e-05
4.96352e-05
4.97402e-05
4.99238e-05
5.01721e-05
5.04711e-05
5.0808e-05
5.1172e-05
5.1554e-05
5.19465e-05
5.23432e-05
5.27388e-05
5.31286e-05
5.35088e-05
5.38758e-05
5.42267e-05
5.45587e-05
5.48698e-05
5.51578e-05
5.13439e-05
5.14908e-05
5.13511e-05
5.08494e-05
5.0322e-05
4.99151e-05
4.96622e-05
4.95544e-05
4.9573e-05
4.96958e-05
4.99007e-05
5.0168e-05
5.04811e-05
5.08266e-05