/*--------------------------------*- C++ -*----------------------------------*\
  =========                 |
  \\      /  F ield         | OpenFOAM: The Open Source CFD Toolbox
   \\    /   O peration     | Website:  https://openfoam.org
    \\  /    A nd           | Version:  13
     \\/     M anipulation  |
\*---------------------------------------------------------------------------*/
FoamFile
{
    format      ascii;
    class       surfaceScalarField;
    location    "30";
    object      phi;
}
// * * * * * * * * * * * * * * * * * * * * * * * * * * * * * * * * * * * * * //

dimensions      [0 3 -1 0 0 0 0];

internalField   nonuniform List<scalar> 
12590
(
5.81887e-10
-6.19153e-09
9.57924e-08
-1.02375e-07
2.20083e-07
-1.25343e-07
3.33531e-07
-1.17591e-07
4.34717e-07
-1.01663e-07
5.18153e-07
-8.61089e-08
5.89557e-07
-7.21034e-08
6.47008e-07
-5.94253e-08
6.92643e-07
-4.66621e-08
7.24231e-07
-3.32669e-08
7.41515e-07
-1.88425e-08
7.43173e-07
-3.38577e-09
7.28227e-07
1.32717e-08
6.95446e-07
3.07017e-08
6.45302e-07
4.85911e-08
5.76209e-07
6.63411e-08
4.91443e-07
8.32816e-08
3.89859e-07
9.7977e-08
2.78608e-07
1.09117e-07
1.62171e-07
1.10991e-07
5.96523e-08
9.81022e-08
-1.72871e-08
6.66781e-08
-5.42292e-08
2.64804e-08
-4.83735e-08
-2.14463e-08
-5.24506e-08
6.14376e-08
-7.29431e-08
1.69609e-07
-2.14843e-07
2.77281e-07
-2.35342e-07
3.75192e-07
-2.18328e-07
4.66252e-07
-1.94353e-07
5.4907e-07
-1.71111e-07
6.24431e-07
-1.48681e-07
6.89448e-07
-1.26137e-07
7.43298e-07
-1.01787e-07
7.83736e-07
-7.52622e-08
8.09843e-07
-4.6361e-08
8.19988e-07
-1.52091e-08
8.13517e-07
1.80899e-08
7.89976e-07
5.24218e-08
7.49524e-07
8.74233e-08
6.92505e-07
1.21343e-07
6.21039e-07
1.53018e-07
5.36295e-07
1.80475e-07
4.41572e-07
2.01401e-07
3.37226e-07
2.12581e-07
2.24862e-07
2.07123e-07
1.12202e-07
1.75534e-07
1.69497e-08
1.10337e-07
-2.386e-08
7.2796e-09
-8.16428e-08
1.04439e-07
-1.82479e-07
2.00771e-07
-3.1525e-07
2.8732e-07
-3.24769e-07
3.69661e-07
-3.03652e-07
4.50302e-07
-2.77231e-07
5.2703e-07
-2.49905e-07
5.9778e-07
-2.21304e-07
6.5925e-07
-1.89136e-07
7.08156e-07
-1.523e-07
7.42309e-07
-1.10895e-07
7.6031e-07
-6.60366e-08
7.61958e-07
-1.86401e-08
7.47625e-07
3.05071e-08
7.19621e-07
7.85066e-08
6.78198e-07
1.27014e-07
6.23904e-07
1.73642e-07
5.5936e-07
2.15723e-07
4.86719e-07
2.50712e-07
4.0905e-07
2.7709e-07
3.26169e-07
2.92559e-07
2.38831e-07
2.92257e-07
1.44796e-07
2.65208e-07
5.35864e-08
1.99021e-07
-1.85602e-08
6.39554e-08
-1.0343e-07
1.09486e-07
-2.96931e-07
1.88994e-07
-3.9926e-07
2.56921e-07
-3.9605e-07
3.2367e-07
-3.74059e-07
3.90808e-07
-3.469e-07
4.56114e-07
-3.18203e-07
5.18542e-07
-2.85546e-07
5.72928e-07
-2.45843e-07
6.15904e-07
-1.97073e-07
6.43119e-07
-1.40029e-07
6.51617e-07
-7.66561e-08
6.4037e-07
-9.67016e-09
6.13559e-07
5.48847e-08
5.755e-07
1.1398e-07
5.26365e-07
1.74003e-07
4.67234e-07
2.3036e-07
4.02412e-07
2.78558e-07
3.36071e-07
3.15022e-07
2.71141e-07
3.40083e-07
2.07091e-07
3.55044e-07
1.40664e-07
3.56576e-07
7.26638e-08
3.33909e-07
4.54438e-10
2.59678e-07
-3.2705e-08
9.28615e-08
-1.39668e-07
8.6981e-08
-3.89387e-07
1.4264e-07
-4.59594e-07
1.85933e-07
-4.44199e-07
2.2857e-07
-4.20478e-07
2.71832e-07
-3.94665e-07
3.1683e-07
-3.66154e-07
3.59751e-07
-3.32149e-07
3.9877e-07
-2.87665e-07
4.29653e-07
-2.3066e-07
4.48853e-07
-1.62651e-07
4.54474e-07
-8.54253e-08
4.37794e-07
1.61447e-09
4.04777e-07
8.32002e-08
3.63598e-07
1.51216e-07
3.11945e-07
2.22214e-07
2.52982e-07
2.86673e-07
1.92478e-07
3.36694e-07
1.36346e-07
3.69334e-07
8.69899e-08
3.87904e-07
4.22201e-08
3.97719e-07
8.59147e-10
3.96997e-07
-4.39209e-08
3.72273e-07
-6.69533e-08
2.86407e-07
-4.74666e-08
6.23235e-08
-1.89188e-07
5.04651e-08
-4.45128e-07
6.73021e-08
-4.82355e-07
7.76897e-08
-4.59402e-07
8.57012e-08
-4.33999e-07
9.51947e-08
-4.08651e-07
1.0394e-07
-3.79509e-07
1.0992e-07
-3.42224e-07
1.09649e-07
-2.91065e-07
9.53932e-08
-2.21241e-07
6.25855e-08
-1.34392e-07
1.2779e-08
-4.47931e-08
-2.10716e-08
2.48737e-08
-3.17678e-08
8.54678e-08
-3.65528e-08
1.49994e-07
-4.51896e-08
2.26889e-07
-6.10507e-08
2.99566e-07
-7.98565e-08
3.53597e-07
-9.69278e-08
3.84968e-07
-1.11621e-07
4.00916e-07
-1.24604e-07
4.09376e-07
-1.37653e-07
4.07636e-07
-1.4129e-07
3.78296e-07
-1.25278e-07
2.57718e-07
-4.82328e-08
-1.64179e-08
-2.39461e-07
-3.39035e-09
-4.46651e-07
-4.0494e-08
-4.50282e-07
-8.48326e-08
-4.19199e-07
-1.31448e-07
-3.91382e-07
-1.76117e-07
-3.67023e-07
-2.16653e-07
-3.4161e-07
-2.51552e-07
-3.09781e-07
-2.80351e-07
-2.64233e-07
-3.0457e-07
-1.98986e-07
-3.26031e-07
-1.15146e-07
-3.47795e-07
-2.58374e-08
-3.72604e-07
4.69825e-08
-3.93027e-07
1.032e-07
-3.99616e-07
1.54443e-07
-3.88269e-07
2.1389e-07
-3.65186e-07
2.7508e-07
-3.36548e-07
3.2414e-07
-3.07903e-07
3.5511e-07
-2.82235e-07
3.74394e-07
-2.6195e-07
3.87212e-07
-2.4244e-07
3.87469e-07
-2.14476e-07
3.43971e-07
-1.35659e-07
1.84237e-07
-3.41209e-08
-1.29196e-07
-2.73941e-07
-7.50374e-08
-3.75753e-07
-1.73156e-07
-3.56411e-07
-2.76192e-07
-3.18954e-07
-3.7813e-07
-2.91774e-07
-4.74828e-07
-2.72043e-07
-5.63569e-07
-2.54212e-07
-6.41293e-07
-2.32918e-07
-7.041e-07
-2.02257e-07
-7.46995e-07
-1.57172e-07
-7.66485e-07
-9.64165e-08
-7.66414e-07
-2.71141e-08
-7.56316e-07
3.55795e-08
-7.37656e-07
8.29329e-08
-7.05125e-07
1.20757e-07
-6.55283e-07
1.6256e-07
-5.92188e-07
2.11031e-07
-5.25202e-07
2.56137e-07
-4.60943e-07
2.89805e-07
-4.01235e-07
3.13961e-07
-3.48014e-07
3.33195e-07
-2.97744e-07
3.37093e-07
-2.31375e-07
2.82274e-07
-1.33921e-07
7.52054e-08
-1.65945e-08
-2.42771e-07
-2.92036e-07
-1.46373e-07
-2.33441e-07
-3.12071e-07
-1.93336e-07
-4.76194e-07
-1.56926e-07
-6.32794e-07
-1.36504e-07
-7.79892e-07
-1.25737e-07
-9.15253e-07
-1.1929e-07
-1.03496e-06
-1.138e-07
-1.13234e-06
-1.05277e-07
-1.1989e-06
-9.07906e-08
-1.22659e-06
-6.95046e-08
-1.21099e-06
-4.34356e-08
-1.15749e-06
-1.89887e-08
-1.07732e-06
1.72328e-09
-9.77547e-07
1.94751e-08
-8.63161e-07
4.67457e-08
-7.4512e-07
9.145e-08
-6.3781e-07
1.46769e-07
-5.47716e-07
1.98425e-07
-4.65927e-07
2.29852e-07
-3.80729e-07
2.46894e-07
-2.94838e-07
2.51664e-07
-2.06212e-07
1.88603e-07
-9.79164e-08
-2.41614e-08
-1.3269e-08
-3.35051e-07
-3.0446e-07
-2.22855e-07
-1.40671e-08
-4.57514e-07
3.83873e-08
-6.73463e-07
5.78298e-08
-8.74938e-07
6.43398e-08
-1.06558e-06
6.44231e-08
-1.24568e-06
6.05347e-08
-1.41225e-06
5.27761e-08
-1.55958e-06
4.1858e-08
-1.67933e-06
2.83855e-08
-1.76165e-06
1.24429e-08
-1.79793e-06
-7.66526e-09
-1.78027e-06
-3.76253e-08
-1.70355e-06
-7.57975e-08
-1.56776e-06
-1.17659e-07
-1.37343e-06
-1.48603e-07
-1.13176e-06
-1.52207e-07
-8.69865e-07
-1.16741e-07
-6.41057e-07
-3.32442e-08
-4.7752e-07
6.30992e-08
-3.48838e-07
1.16008e-07
-2.31675e-07
1.30998e-07
-1.1337e-07
7.31904e-08
-4.63339e-08
-1.05988e-07
-2.02065e-09
-3.75907e-07
-3.0736e-07
-2.80451e-07
2.62887e-07
-5.38834e-07
2.95455e-07
-7.76651e-07
2.94695e-07
-1.00241e-06
2.89649e-07
-1.21918e-06
2.81132e-07
-1.42652e-06
2.67914e-07
-1.62151e-06
2.47466e-07
-1.79855e-06
2.1872e-07
-1.95045e-06
1.80271e-07
-2.06905e-06
1.30503e-07
-2.14632e-06
6.9027e-08
-2.18332e-06
-1.14182e-09
-2.17759e-06
-8.22216e-08
-2.12039e-06
-1.75635e-07
-1.9988e-06
-2.71022e-07
-1.79801e-06
-3.54166e-07
-1.50555e-06
-4.10343e-07
-1.12998e-06
-4.10798e-07
-7.3356e-07
-3.3541e-07
-4.13263e-07
-2.08023e-07
-1.80115e-07
-1.06491e-07
-2.01967e-08
-9.95933e-08
3.5122e-08
-1.58062e-07
2.70976e-08
-3.73197e-07
-2.7957e-07
-2.82233e-07
5.43332e-07
-5.32251e-07
5.43537e-07
-7.67714e-07
5.2957e-07
-9.95614e-07
5.17342e-07
-1.21738e-06
5.0278e-07
-1.43151e-06
4.81926e-07
-1.63407e-06
4.50248e-07
-1.81958e-06
4.041e-07
-1.98051e-06
3.4079e-07
-2.10945e-06
2.59221e-07
-2.2019e-06
1.6126e-07
-2.25553e-06
5.1991e-08
-2.27111e-06
-6.70389e-08
-2.25404e-06
-1.93186e-07
-2.20268e-06
-3.22913e-07
-2.10641e-06
-4.51079e-07
-1.95017e-06
-5.6743e-07
-1.70667e-06
-6.55317e-07
-1.34877e-06
-6.94504e-07
-9.03441e-07
-6.55308e-07
-4.85614e-07
-5.27833e-07
-1.95768e-07
-3.92212e-07
-3.40056e-08
-3.31537e-07
7.32959e-09
-4.11821e-07
-2.72748e-07
-2.42714e-07
7.83665e-07
-4.7024e-07
7.7011e-07
-6.89781e-07
7.48319e-07
-9.05393e-07
7.32622e-07
-1.11714e-06
7.14537e-07
-1.32237e-06
6.87237e-07
-1.51637e-06
6.43958e-07
-1.6912e-06
5.78762e-07
-1.83698e-06
4.86613e-07
-1.94519e-06
3.66985e-07
-2.01219e-06
2.27856e-07
-2.04353e-06
8.30538e-08
-2.05018e-06
-6.07895e-08
-2.03925e-06
-2.0454e-07
-2.01497e-06
-3.4759e-07
-1.9779e-06
-4.88686e-07
-1.91764e-06
-6.28394e-07
-1.80591e-06
-7.67823e-07
-1.61642e-06
-8.84948e-07
-1.32165e-06
-9.51589e-07
-9.25789e-07
-9.25152e-07
-5.28047e-07
-7.94473e-07
-2.21968e-07
-6.36335e-07
-8.19004e-08
-5.54194e-07
-3.53767e-07
-1.88918e-07
9.71272e-07
-3.8685e-07
9.6646e-07
-5.80017e-07
9.40862e-07
-7.73076e-07
9.25459e-07
-9.64926e-07
9.06238e-07
-1.15149e-06
8.73585e-07
-1.32614e-06
8.18672e-07
-1.4788e-06
7.31129e-07
-1.59651e-06
6.03768e-07
-1.66934e-06
4.3936e-07
-1.69983e-06
2.58012e-07
-1.70509e-06
8.77523e-08
-1.69951e-06
-6.67638e-08
-1.68335e-06
-2.21237e-07
-1.65385e-06
-3.77489e-07
-1.61424e-06
-5.28967e-07
-1.56887e-06
-6.74546e-07
-1.5212e-06
-8.16337e-07
-1.45278e-06
-9.54421e-07
-1.32057e-06
-1.08458e-06
-1.07842e-06
-1.16933e-06
-7.40156e-07
-1.13332e-06
-4.0107e-07
-9.77743e-07
-1.66131e-07
-7.87198e-07
-5.21437e-07
-1.38082e-07
1.10843e-06
-2.99112e-07
1.12713e-06
-4.60144e-07
1.10175e-06
-6.25552e-07
1.09092e-06
-7.9281e-07
1.07363e-06
-9.57174e-07
1.038e-06
-1.11222e-06
9.73195e-07
-1.24584e-06
8.6428e-07
-1.34367e-06
7.01082e-07
-1.39759e-06
4.92677e-07
-1.41944e-06
2.79282e-07
-1.4327e-06
1.00922e-07
-1.43984e-06
-5.99606e-08
-1.42465e-06
-2.36507e-07
-1.38299e-06
-4.19515e-07
-1.3202e-06
-5.9208e-07
-1.24632e-06
-7.49061e-07
-1.17319e-06
-8.90054e-07
-1.10573e-06
-1.02236e-06
-1.03681e-06
-1.15397e-06
-9.39871e-07
-1.26628e-06
-7.53814e-07
-1.32011e-06
-4.73321e-07
-1.2562e-06
-2.05374e-07
-1.05818e-06
-7.23414e-07
-9.10454e-08
1.19764e-06
-2.1419e-07
1.24898e-06
-3.41041e-07
1.22795e-06
-4.76827e-07
1.2262e-06
-6.17639e-07
1.21341e-06
-7.58997e-07
1.17901e-06
-8.95561e-07
1.10883e-06
-1.01549e-06
9.8374e-07
-1.10434e-06
7.88868e-07
-1.15687e-06
5.44828e-07
-1.19191e-06
3.1416e-07
-1.2262e-06
1.35868e-07
-1.24219e-06
-4.37676e-08
-1.21967e-06
-2.58472e-07
-1.16198e-06
-4.76866e-07
-1.07778e-06
-6.76302e-07
-9.76676e-07
-8.49863e-07
-8.73824e-07
-9.93221e-07
-7.84596e-07
-1.11046e-06
-7.17593e-07
-1.22044e-06
-6.53739e-07
-1.32867e-06
-5.71908e-07
-1.39906e-06
-4.28175e-07
-1.40029e-06
-1.99047e-07
-1.27955e-06
-9.12242e-07
-4.81295e-08
1.24237e-06
-1.33149e-07
1.33009e-06
-2.26659e-07
1.31732e-06
-3.33083e-07
1.32804e-06
-4.45089e-07
1.32419e-06
-5.62965e-07
1.29297e-06
-6.79702e-07
1.22466e-06
-7.88047e-07
1.08893e-06
-8.7077e-07
8.71277e-07
-9.27228e-07
5.99184e-07
-9.72685e-07
3.60925e-07
-1.01091e-06
1.72556e-07
-1.01171e-06
-4.00846e-08
-9.71241e-07
-2.99586e-07
-8.95885e-07
-5.50994e-07
-7.96476e-07
-7.75585e-07
-6.83135e-07
-9.63557e-07
-5.68016e-07
-1.1065e-06
-4.6807e-07
-1.21115e-06
-3.94824e-07
-1.29007e-06
-3.53587e-07
-1.36732e-06
-3.32327e-07
-1.41406e-06
-2.89721e-07
-1.43609e-06
-1.61127e-07
-1.388e-06
-1.07721e-06
-8.46204e-09
1.24118e-06
-5.50986e-08
1.36867e-06
-1.17661e-07
1.37233e-06
-1.9245e-07
1.39931e-06
-2.77743e-07
1.40075e-06
-3.66577e-07
1.37875e-06
-4.62823e-07
1.31462e-06
-5.54494e-07
1.17813e-06
-6.32525e-07
9.44388e-07
-6.85993e-07
6.51846e-07
-7.2831e-07
3.98725e-07
-7.42467e-07
1.90292e-07
-7.18929e-07
-6.76378e-08
-6.58922e-07
-3.58021e-07
-5.71192e-07
-6.40531e-07
-4.62198e-07
-8.86055e-07
-3.44337e-07
-1.0809e-06
-2.3428e-07
-1.22046e-06
-1.37167e-07
-1.30515e-06
-7.14772e-08
-1.35855e-06
-3.3857e-08
-1.39586e-06
-4.03556e-08
-1.40884e-06
-7.4405e-08
-1.38142e-06
-8.95311e-08
-1.391e-06
-1.16061e-06
3.13668e-08
1.20477e-06
1.94234e-08
1.37497e-06
-1.20996e-08
1.39979e-06
-5.96889e-08
1.43742e-06
-1.11599e-07
1.44924e-06
-1.73062e-07
1.43192e-06
-2.41615e-07
1.3769e-06
-3.15954e-07
1.24567e-06
-3.83582e-07
1.00762e-06
-4.31087e-07
6.93228e-07
-4.49398e-07
4.17384e-07
-4.37747e-07
1.69879e-07
-3.82919e-07
-1.22714e-07
-3.08296e-07
-4.37199e-07
-2.09048e-07
-7.43446e-07
-9.41424e-08
-1.00373e-06
1.89636e-08
-1.20059e-06
1.24118e-07
-1.32682e-06
2.0544e-07
-1.39506e-06
2.66962e-07
-1.4186e-06
2.8647e-07
-1.42493e-06
2.83276e-07
-1.39631e-06
1.8595e-07
-1.31649e-06
8.73503e-08
-1.27721e-06
-1.08183e-06
7.21166e-08
1.1274e-06
9.11528e-08
1.35301e-06
8.43545e-08
1.40181e-06
6.96194e-08
1.45084e-06
4.59192e-08
1.46499e-06
1.92643e-08
1.45206e-06
-1.40033e-08
1.40378e-06
-6.07228e-08
1.28629e-06
-1.19003e-07
1.06007e-06
-1.6849e-07
7.3958e-07
-1.81726e-07
4.21064e-07
-1.36926e-07
1.25314e-07
-5.59606e-08
-2.1211e-07
5.26784e-08
-5.51127e-07
1.7847e-07
-8.73958e-07
3.0165e-07
-1.13256e-06
4.11034e-07
-1.31408e-06
4.99289e-07
-1.42257e-06
5.68187e-07
-1.4691e-06
6.13616e-07
-1.47332e-06
6.32488e-07
-1.44825e-06
6.14063e-07
-1.39807e-06
5.7674e-07
-1.26705e-06
3.85224e-07
-1.10259e-06
-6.89207e-07
1.32379e-07
9.94947e-07
2.01779e-07
1.28238e-06
2.42901e-07
1.3601e-06
2.7629e-07
1.41229e-06
3.06873e-07
1.43277e-06
3.33412e-07
1.42091e-06
3.52663e-07
1.38004e-06
3.49717e-07
1.28495e-06
3.08931e-07
1.09754e-06
2.36515e-07
8.07341e-07
1.83709e-07
4.75344e-07
1.80232e-07
1.18317e-07
2.18589e-07
-2.52516e-07
2.73254e-07
-6.08544e-07
3.27256e-07
-9.30941e-07
3.75133e-07
-1.18351e-06
4.13983e-07
-1.35683e-06
4.43955e-07
-1.45701e-06
4.67397e-07
-1.49824e-06
4.84859e-07
-1.49688e-06
4.94327e-07
-1.46408e-06
4.99799e-07
-1.40183e-06
5.20408e-07
-1.29666e-06
5.55292e-07
-1.12209e-06
-9.49652e-07
8.23738e-07
1.63424e-07
8.28629e-07
2.62698e-07
1.18205e-06
3.23217e-07
1.29711e-06
3.79019e-07
1.35779e-06
4.31181e-07
1.3758e-06
4.85657e-07
1.36424e-06
5.3739e-07
1.32483e-06
5.79985e-07
1.23977e-06
5.96056e-07
1.07896e-06
5.81101e-07
8.21939e-07
5.59944e-07
4.90125e-07
5.66556e-07
1.16017e-07
5.95137e-07
-2.83573e-07
6.41582e-07
-6.56196e-07
6.85932e-07
-9.76384e-07
7.2082e-07
-1.21962e-06
7.47207e-07
-1.38473e-06
7.69754e-07
-1.48177e-06
7.92671e-07
-1.52398e-06
8.1627e-07
-1.52288e-06
8.39582e-07
-1.48861e-06
8.60493e-07
-1.42259e-06
8.96656e-07
-1.32149e-06
9.72997e-07
-1.192e-06
-1.04365e-06
1.07315e-06
1.73764e-07
6.55146e-07
3.06827e-07
1.04799e-06
3.93043e-07
1.2116e-06
4.6168e-07
1.28491e-06
5.30728e-07
1.30715e-06
6.01189e-07
1.29111e-06
6.75186e-07
1.24848e-06
7.49205e-07
1.16374e-06
8.13129e-07
1.01343e-06
8.54141e-07
7.77819e-07
8.84213e-07
4.64628e-07
9.05757e-07
8.81389e-08
9.36787e-07
-3.13849e-07
9.71016e-07
-6.90316e-07
9.97632e-07
-1.00308e-06
1.01735e-06
-1.23949e-06
1.03666e-06
-1.40448e-06
1.06183e-06
-1.50776e-06
1.09438e-06
-1.55767e-06
1.13215e-06
-1.56133e-06
1.1706e-06
-1.5263e-06
1.20942e-06
-1.45645e-06
1.24688e-06
-1.35372e-06
1.28666e-06
-1.22438e-06
-1.07427e-06
1.32177e-06
1.57556e-07
4.95338e-07
3.21675e-07
8.83468e-07
4.39457e-07
1.09172e-06
5.29318e-07
1.19644e-06
6.0407e-07
1.22979e-06
6.77504e-07
1.21588e-06
7.57969e-07
1.1668e-06
8.44908e-07
1.07506e-06
9.32748e-07
9.24512e-07
1.01181e-06
7.00006e-07
1.07168e-06
3.98046e-07
1.1207e-06
4.44899e-08
1.15796e-06
-3.51867e-07
1.1858e-06
-7.17986e-07
1.20368e-06
-1.0206e-06
1.22183e-06
-1.25729e-06
1.25092e-06
-1.43337e-06
1.29433e-06
-1.55126e-06
1.34803e-06
-1.61164e-06
1.40623e-06
-1.61935e-06
1.4631e-06
-1.5815e-06
1.51471e-06
-1.5048e-06
1.56011e-06
-1.39406e-06
1.59757e-06
-1.25497e-06
-1.09978e-06
1.62499e-06
1.24754e-07
3.7095e-07
2.99313e-07
7.08662e-07
4.54722e-07
9.37126e-07
5.7107e-07
1.07764e-06
6.53636e-07
1.14759e-06
7.19594e-07
1.14913e-06
7.89876e-07
1.09549e-06
8.71416e-07
9.92801e-07
9.60824e-07
8.34604e-07
1.04706e-06
6.10839e-07
1.12642e-06
3.24778e-07
1.18261e-06
-1.74056e-08
1.22733e-06
-3.95194e-07
1.25601e-06
-7.45781e-07
1.28248e-06
-1.04629e-06
1.32194e-06
-1.29607e-06
1.37916e-06
-1.49007e-06
1.44873e-06
-1.62057e-06
1.52136e-06
-1.68411e-06
1.591e-06
-1.6884e-06
1.65468e-06
-1.64375e-06
1.71116e-06
-1.55864e-06
1.76245e-06
-1.43975e-06
1.80566e-06
-1.2971e-06
-1.13449e-06
1.84444e-06
9.16573e-08
2.81109e-07
2.4844e-07
5.52435e-07
4.26405e-07
7.57725e-07
5.80392e-07
9.2563e-07
6.74657e-07
1.05175e-06
7.30322e-07
1.0938e-06
7.80496e-07
1.04498e-06
8.41806e-07
9.31832e-07
9.14817e-07
7.61603e-07
9.93711e-07
5.34298e-07
1.0603e-06
2.51288e-07
1.11966e-06
-7.06156e-08
1.16348e-06
-4.39108e-07
1.2035e-06
-7.84986e-07
1.25842e-06
-1.10028e-06
1.33274e-06
-1.36953e-06
1.4159e-06
-1.57256e-06
1.49618e-06
-1.70034e-06
1.56527e-06
-1.75279e-06
1.62425e-06
-1.74676e-06
1.6778e-06
-1.69578e-06
1.73015e-06
-1.60806e-06
1.78287e-06
-1.49185e-06
1.84066e-06
-1.34898e-06
-1.19124e-06
1.89738e-06
6.47992e-08
2.18608e-07
1.81307e-07
4.36722e-07
3.57346e-07
5.83941e-07
5.41052e-07
7.39885e-07
6.58043e-07
9.36549e-07
7.05518e-07
1.04668e-06
7.35403e-07
1.01638e-06
7.68787e-07
8.99813e-07
8.15943e-07
7.15589e-07
8.6842e-07
4.80255e-07
9.20164e-07
2.07195e-07
9.58922e-07
-1.13906e-07
1.00365e-06
-4.8164e-07
1.07307e-06
-8.52908e-07
1.16858e-06
-1.19455e-06
1.26766e-06
-1.46758e-06
1.34991e-06
-1.65395e-06
1.41021e-06
-1.75998e-06
1.45527e-06
-1.7973e-06
1.49548e-06
-1.78616e-06
1.53571e-06
-1.73483e-06
1.58095e-06
-1.6523e-06
1.63666e-06
-1.54299e-06
1.70176e-06
-1.41544e-06
-1.26871e-06
1.78174e-06
3.87467e-08
1.85394e-07
1.29051e-07
3.50148e-07
2.69186e-07
4.4339e-07
4.54436e-07
5.57923e-07
5.92252e-07
7.99028e-07
6.37326e-07
1.00344e-06
6.51838e-07
1.0046e-06
6.58563e-07
8.96083e-07
6.76537e-07
7.00919e-07
7.01755e-07
4.59487e-07
7.12172e-07
1.91909e-07
7.33123e-07
-1.27192e-07
8.02753e-07
-5.49754e-07
9.23879e-07
-9.72313e-07
1.05204e-06
-1.32126e-06
1.15043e-06
-1.56475e-06
1.20895e-06
-1.71148e-06
1.23511e-06
-1.78535e-06
1.24531e-06
-1.80684e-06
1.2569e-06
-1.79706e-06
1.28087e-06
-1.75775e-06
1.32286e-06
-1.69206e-06
1.38138e-06
-1.60247e-06
1.45877e-06
-1.48917e-06
-1.36141e-06
1.55053e-06
4.23893e-08
1.51944e-07
1.55816e-07
2.39886e-07
2.70559e-07
3.32655e-07
3.88501e-07
4.39588e-07
4.96071e-07
6.94342e-07
5.26209e-07
9.76415e-07
5.25013e-07
1.01002e-06
5.13217e-07
9.13117e-07
5.0669e-07
7.11817e-07
4.9851e-07
4.70167e-07
4.65581e-07
2.36149e-07
4.89993e-07
-1.51218e-07
6.29657e-07
-6.8584e-07
8.05094e-07
-1.14541e-06
9.48929e-07
-1.46337e-06
1.04241e-06
-1.65686e-06
1.09513e-06
-1.76305e-06
1.12423e-06
-1.81354e-06
1.14404e-06
-1.82588e-06
1.15842e-06
-1.81062e-06
1.17291e-06
-1.77118e-06
1.19318e-06
-1.71195e-06
1.22952e-06
-1.63589e-06
1.28397e-06
-1.54538e-06
-1.43739e-06
1.36078e-06
8.74157e-08
6.89319e-08
2.73406e-07
5.76603e-08
3.70859e-07
2.35978e-07
3.89115e-07
4.25908e-07
4.01586e-07
6.84929e-07
3.90765e-07
9.92287e-07
3.63272e-07
1.04409e-06
3.34257e-07
9.4955e-07
3.10405e-07
7.44443e-07
2.87551e-07
5.02771e-07
2.00708e-07
3.27852e-07
3.07589e-07
-2.48746e-07
5.28252e-07
-9.02935e-07
7.32093e-07
-1.34678e-06
8.80695e-07
-1.61018e-06
9.8198e-07
-1.75671e-06
1.05269e-06
-1.83258e-06
1.10368e-06
-1.86354e-06
1.14077e-06
-1.86216e-06
1.16742e-06
-1.83647e-06
1.1892e-06
-1.79211e-06
1.21195e-06
-1.73318e-06
1.23804e-06
-1.6629e-06
1.27566e-06
-1.58117e-06
-1.49079e-06
1.32794e-06
1.70711e-07
-9.59973e-08
3.33527e-07
-1.0131e-07
3.81005e-07
1.94718e-07
3.50547e-07
4.60068e-07
2.89128e-07
7.52333e-07
2.34142e-07
1.05432e-06
1.78483e-07
1.10885e-06
1.30624e-07
1.00789e-06
8.68275e-08
7.98663e-07
4.04937e-08
5.6142e-07
-9.69798e-09
4.00003e-07
2.22443e-07
-4.74685e-07
4.74893e-07
-1.1515e-06
6.74144e-07
-1.54357e-06
8.23716e-07
-1.75797e-06
9.37872e-07
-1.86942e-06
1.02645e-06
-1.91994e-06
1.09535e-06
-1.93143e-06
1.14981e-06
-1.91577e-06
1.19477e-06
-1.88063e-06
1.23476e-06
-1.83118e-06
1.27312e-06
-1.77119e-06
1.31397e-06
-1.70197e-06
1.35674e-06
-1.62532e-06
-1.53841e-06
1.40482e-06
2.27488e-07
-3.19028e-07
2.78696e-07
-1.45747e-07
2.85993e-07
1.93955e-07
2.40483e-07
5.1216e-07
1.32326e-07
8.67848e-07
4.3717e-08
1.15157e-06
-2.93806e-08
1.19125e-06
-9.02563e-08
1.07918e-06
-1.55354e-07
8.74981e-07
-2.00001e-07
6.20824e-07
-8.3241e-08
3.01029e-07
1.93388e-07
-7.44571e-07
4.27192e-07
-1.3815e-06
6.16733e-07
-1.73073e-06
7.70397e-07
-1.90993e-06
8.95607e-07
-1.99324e-06
9.97505e-07
-2.02066e-06
1.0808e-06
-2.01373e-06
1.15079e-06
-1.98492e-06
1.21267e-06
-1.94173e-06
1.27053e-06
-1.88827e-06
1.32711e-06
-1.82658e-06
1.3827e-06
-1.75817e-06
1.44004e-06
-1.68102e-06
-1.59655e-06
1.49735e-06
1.7061e-07
-4.83784e-07
1.48913e-07
-1.11276e-07
1.38868e-07
2.15165e-07
3.22473e-08
6.26932e-07
-1.06644e-07
1.01237e-06
-1.93393e-07
1.24609e-06
-2.62791e-07
1.26893e-06
-3.33525e-07
1.15907e-06
-3.97278e-07
9.46742e-07
-3.68826e-07
6.05342e-07
-8.0001e-08
2.60738e-08
1.75821e-07
-9.94437e-07
3.98187e-07
-1.60144e-06
5.88223e-07
-1.91893e-06
7.46663e-07
-2.06691e-06
8.77406e-07
-2.12274e-06
9.8539e-07
-2.12755e-06
1.07601e-06
-2.10341e-06
1.1547e-06
-2.06279e-06
1.22631e-06
-2.01259e-06
1.2949e-06
-1.95603e-06
1.36282e-06
-1.89418e-06
1.43262e-06
-1.8262e-06
1.50349e-06
-1.75312e-06
-1.67181e-06
1.57959e-06
3.7511e-08
-5.09196e-07
4.06029e-08
-9.6148e-08
-4.77988e-08
3.12588e-07
-2.05508e-07
7.87587e-07
-3.31496e-07
1.14623e-06
-4.12592e-07
1.33241e-06
-4.88681e-07
1.35209e-06
-5.49782e-07
1.22698e-06
-5.47045e-07
9.52995e-07
-3.95486e-07
4.63206e-07
-5.22118e-08
-3.07852e-07
1.91653e-07
-1.2369e-06
4.11756e-07
-1.81908e-06
6.01274e-07
-2.10694e-06
7.59446e-07
-2.22392e-06
8.89982e-07
-2.25223e-06
9.98085e-07
-2.2347e-06
1.08963e-06
-2.1941e-06
1.17048e-06
-2.14289e-06
1.24574e-06
-2.08715e-06
1.3194e-06
-2.02903e-06
1.39484e-06
-1.9685e-06
1.47332e-06
-1.90542e-06
1.55955e-06
-1.83745e-06
-1.76743e-06
1.65439e-06
-3.51477e-08
-4.66475e-07
-8.66037e-08
-3.2618e-08
-2.64951e-07
4.94506e-07
-4.29969e-07
9.60244e-07
-5.53035e-07
1.27151e-06
-6.34696e-07
1.41961e-06
-6.76344e-07
1.39977e-06
-6.62773e-07
1.21958e-06
-5.52587e-07
8.49906e-07
-3.06163e-07
2.2785e-07
1.35915e-08
-6.2672e-07
2.55251e-07
-1.47477e-06
4.68336e-07
-2.03165e-06
6.50324e-07
-2.28825e-06
8.01425e-07
-2.37428e-06
9.25968e-07
-2.376e-06
1.02945e-06
-2.3374e-06
1.11792e-06
-2.28184e-06
1.19734e-06
-2.22163e-06
1.27286e-06
-2.16203e-06
1.34863e-06
-2.10414e-06
1.4275e-06
-2.04722e-06
1.5134e-06
-1.98955e-06
1.60697e-06
-1.93241e-06
-1.87357e-06
1.71404e-06
-5.59276e-08
-3.93809e-07
-2.41874e-07
1.60971e-07
-4.43512e-07
7.02087e-07
-5.86479e-07
1.10391e-06
-6.64198e-07
1.3543e-06
-6.90737e-07
1.44995e-06
-6.71743e-07
1.38415e-06
-6.02495e-07
1.1553e-06
-3.93242e-07
6.4699e-07
-1.0419e-07
-5.95236e-08
1.66332e-07
-8.93796e-07
3.77062e-07
-1.68762e-06
5.70547e-07
-2.22466e-06
7.33787e-07
-2.45117e-06
8.68816e-07
-2.50889e-06
9.8039e-07
-2.48704e-06
1.07398e-06
-2.4304e-06
1.15554e-06
-2.36281e-06
1.23072e-06
-2.29624e-06
1.30416e-06
-2.23495e-06
1.37942e-06
-2.17887e-06
1.45952e-06
-2.12637e-06
1.54553e-06
-2.07656e-06
1.64179e-06
-2.02682e-06
-1.98016e-06
1.74751e-06
-1.11705e-07
-2.78551e-07
-3.54795e-07
4.07796e-07
-5.30498e-07
8.79001e-07
-6.29404e-07
1.20742e-06
-6.60861e-07
1.38638e-06
-6.43759e-07
1.4349e-06
-5.62815e-07
1.30611e-06
-3.99641e-07
9.93867e-07
-1.06139e-07
3.55223e-07
1.64327e-07
-3.29306e-07
3.7611e-07
-1.10962e-06
5.50777e-07
-1.86125e-06
7.12038e-07
-2.38675e-06
8.45832e-07
-2.58524e-06
9.56399e-07
-2.61941e-06
1.04854e-06
-2.57892e-06
1.1274e-06
-2.50887e-06
1.19855e-06
-2.43353e-06
1.26699e-06
-2.36424e-06
1.33641e-06
-2.30391e-06
1.40929e-06
-2.25128e-06
1.48696e-06
-2.20413e-06
1.57201e-06
-2.15997e-06
1.66333e-06
-2.11973e-06
-2.08063e-06
1.7646e-06
-1.88169e-07
-8.23322e-08
-3.87974e-07
6.0948e-07
-5.07974e-07
1.00206e-06
-5.5586e-07
1.25444e-06
-5.41212e-07
1.374e-06
-4.64967e-07
1.35874e-06
-3.1033e-07
1.15165e-06
-4.77116e-08
7.31288e-07
2.15589e-07
8.77982e-08
4.29084e-07
-5.46881e-07
6.08843e-07
-1.28886e-06
7.48053e-07
-2.0033e-06
8.7509e-07
-2.51447e-06
9.74165e-07
-2.68477e-06
1.05531e-06
-2.70072e-06
1.12401e-06
-2.64756e-06
1.18515e-06
-2.56981e-06
1.24385e-06
-2.49193e-06
1.30409e-06
-2.42415e-06
1.36822e-06
-2.3677e-06
1.43741e-06
-2.32016e-06
1.51271e-06
-2.27868e-06
1.59357e-06
-2.24202e-06
1.68318e-06
-2.20768e-06
-2.1786e-06
1.7802e-06
-2.01613e-07
1.17036e-07
-3.31561e-07
7.39979e-07
-3.93323e-07
1.06323e-06
-3.87212e-07
1.25035e-06
-3.29768e-07
1.31463e-06
-2.00926e-07
1.22913e-06
-4.18602e-09
9.52552e-07
2.31364e-07
4.9069e-07
4.63422e-07
-1.49081e-07
6.80853e-07
-7.6621e-07
8.24204e-07
-1.43606e-06
9.41438e-07
-2.12081e-06
1.03845e-06
-2.61263e-06
1.10361e-06
-2.75059e-06
1.15474e-06
-2.75219e-06
1.19912e-06
-2.69205e-06
1.24199e-06
-2.61262e-06
1.288e-06
-2.53778e-06
1.33984e-06
-2.47578e-06
1.39834e-06
-2.42596e-06
1.46351e-06
-2.38508e-06
1.53494e-06
-2.35038e-06
1.61408e-06
-2.31976e-06
1.69936e-06
-2.2946e-06
-2.27265e-06
1.79407e-06
-1.43096e-07
2.58185e-07
-2.15284e-07
8.11199e-07
-2.21918e-07
1.07059e-06
-1.77156e-07
1.20354e-06
-7.55444e-08
1.21169e-06
8.32751e-08
1.06714e-06
2.85646e-07
7.45484e-07
5.1845e-07
2.51803e-07
7.14975e-07
-3.49973e-07
8.70432e-07
-9.25113e-07
9.98183e-07
-1.56423e-06
1.11019e-06
-2.23499e-06
1.18488e-06
-2.68824e-06
1.22041e-06
-2.78679e-06
1.24452e-06
-2.7767e-06
1.26641e-06
-2.71415e-06
1.29262e-06
-2.63889e-06
1.32732e-06
-2.57243e-06
1.37148e-06
-2.51983e-06
1.4243e-06
-2.47865e-06
1.48466e-06
-2.4453e-06
1.55221e-06
-2.41739e-06
1.62567e-06
-2.3945e-06
1.70743e-06
-2.3749e-06
-2.36161e-06
1.79541e-06
-5.77728e-08
3.13394e-07
-7.46634e-08
8.27052e-07
-4.03993e-08
1.03463e-06
4.39524e-08
1.11805e-06
1.78513e-07
1.07452e-06
3.54167e-07
8.87574e-07
5.54476e-07
5.39701e-07
7.5411e-07
4.58661e-08
8.91661e-07
-4.9115e-07
1.00757e-06
-1.04278e-06
1.13691e-06
-1.69614e-06
1.25245e-06
-2.35116e-06
1.30415e-06
-2.74087e-06
1.31554e-06
-2.79881e-06
1.31679e-06
-2.77838e-06
1.31987e-06
-2.71749e-06
1.33301e-06
-2.65217e-06
1.359e-06
-2.59846e-06
1.39671e-06
-2.55753e-06
1.44394e-06
-2.5258e-06
1.49892e-06
-2.50018e-06
1.56038e-06
-2.47924e-06
1.62915e-06
-2.46207e-06
1.7032e-06
-2.45061e-06
-2.44298e-06
1.78508e-06
2.73715e-08
2.81344e-07
6.22152e-08
7.90084e-07
1.27559e-07
9.68244e-07
2.38223e-07
1.00581e-06
3.89063e-07
9.20083e-07
5.67799e-07
7.04735e-07
7.49689e-07
3.52394e-07
9.00174e-07
-1.09484e-07
9.9579e-07
-5.89826e-07
1.10579e-06
-1.15504e-06
1.25394e-06
-1.84483e-06
1.36709e-06
-2.46557e-06
1.39125e-06
-2.76573e-06
1.38292e-06
-2.79104e-06
1.36591e-06
-2.76177e-06
1.35611e-06
-2.70799e-06
1.36144e-06
-2.65769e-06
1.38197e-06
-2.61911e-06
1.41469e-06
-2.59029e-06
1.45665e-06
-2.56776e-06
1.50599e-06
-2.54954e-06
1.56221e-06
-2.53506e-06
1.62396e-06
-2.52514e-06
1.69333e-06
-2.51875e-06
-2.51891e-06
1.76827e-06
9.33429e-08
1.85979e-07
1.75966e-07
7.06294e-07
2.64789e-07
8.783e-07
3.84197e-07
8.83495e-07
5.34953e-07
7.67381e-07
6.98806e-07
5.36467e-07
8.51608e-07
1.94332e-07
9.60246e-07
-2.22008e-07
1.03942e-06
-6.71282e-07
1.17931e-06
-1.29599e-06
1.35146e-06
-2.01824e-06
1.45e-06
-2.56458e-06
1.4434e-06
-2.75967e-06
1.41832e-06
-2.7664e-06
1.39052e-06
-2.73433e-06
1.37595e-06
-2.6937e-06
1.37888e-06
-2.66083e-06
1.39669e-06
-2.63707e-06
1.42558e-06
-2.61927e-06
1.46285e-06
-2.60508e-06
1.50715e-06
-2.59387e-06
1.55763e-06
-2.58601e-06
1.61511e-06
-2.58164e-06
1.67762e-06
-2.58286e-06
-2.58812e-06
1.74721e-06
1.25507e-07
5.6389e-08
2.60366e-07
5.69964e-07
3.67743e-07
7.69395e-07
4.85762e-07
7.6521e-07
6.18548e-07
6.30673e-07
7.54894e-07
3.9651e-07
8.75693e-07
6.96429e-08
9.47773e-07
-2.96649e-07
1.04643e-06
-7.71409e-07
1.24107e-06
-1.49155e-06
1.42502e-06
-2.20241e-06
1.48872e-06
-2.62873e-06
1.46083e-06
-2.73214e-06
1.42568e-06
-2.73159e-06
1.3964e-06
-2.70535e-06
1.38361e-06
-2.68118e-06
1.38736e-06
-2.6648e-06
1.40376e-06
-2.65365e-06
1.42943e-06
-2.64508e-06
1.4625e-06
-2.63826e-06
1.50212e-06
-2.63358e-06
1.54816e-06
-2.63179e-06
1.5994e-06
-2.63413e-06
1.65741e-06
-2.63987e-06
-2.65171e-06
1.72003e-06
1.14399e-07
-5.96734e-08
3.02854e-07
3.8103e-07
4.34093e-07
6.38004e-07
5.44052e-07
6.52482e-07
6.52813e-07
5.21281e-07
7.60674e-07
2.86018e-07
8.41188e-07
-1.34483e-08
8.83513e-07
-3.40447e-07
1.05125e-06
-9.39738e-07
1.30249e-06
-1.74293e-06
1.4694e-06
-2.36956e-06
1.49061e-06
-2.65008e-06
1.45485e-06
-2.69655e-06
1.41618e-06
-2.69312e-06
1.39099e-06
-2.6804e-06
1.38253e-06
-2.67295e-06
1.3879e-06
-2.67039e-06
1.40313e-06
-2.66905e-06
1.42593e-06
-2.66803e-06
1.45531e-06
-2.66775e-06
1.49083e-06
-2.66918e-06
1.53189e-06
-2.67334e-06
1.57909e-06
-2.68054e-06
1.63047e-06
-2.69273e-06
-2.70862e-06
1.68761e-06
7.71276e-08
-1.37193e-07
2.91718e-07
1.66141e-07
4.48882e-07
4.80005e-07
5.5741e-07
5.4499e-07
6.41356e-07
4.35503e-07
7.15253e-07
2.11069e-07
7.38164e-07
-3.70215e-08
8.16136e-07
-4.1854e-07
1.0882e-06
-1.21171e-06
1.36054e-06
-2.01513e-06
1.4824e-06
-2.49123e-06
1.46721e-06
-2.63479e-06
1.42796e-06
-2.65735e-06
1.39443e-06
-2.6597e-06
1.37706e-06
-2.6632e-06
1.37384e-06
-2.66993e-06
1.38061e-06
-2.67736e-06
1.39475e-06
-2.68338e-06
1.41517e-06
-2.68862e-06
1.44147e-06
-2.69418e-06
1.47335e-06
-2.70121e-06
1.51074e-06
-2.71057e-06
1.55244e-06
-2.72341e-06
1.59969e-06
-2.73919e-06
-2.76035e-06
1.65051e-06
4.38281e-08
-1.80426e-07
2.32064e-07
-2.1327e-08
4.02721e-07
3.10326e-07
5.10404e-07
4.36502e-07
5.78302e-07
3.68364e-07
6.17816e-07
1.72391e-07
6.01734e-07
-2.00566e-08
8.00584e-07
-6.16757e-07
1.153e-06
-1.56356e-06
1.3869e-06
-2.24856e-06
1.4436e-06
-2.54757e-06
1.41615e-06
-2.60716e-06
1.38454e-06
-2.62563e-06
1.36443e-06
-2.63962e-06
1.35676e-06
-2.65565e-06
1.35817e-06
-2.6715e-06
1.36591e-06
-2.68529e-06
1.37925e-06
-2.6969e-06
1.39794e-06
-2.70746e-06
1.42185e-06
-2.71824e-06
1.4508e-06
-2.73029e-06
1.48424e-06
-2.74448e-06
1.52259e-06
-2.76115e-06
1.56408e-06
-2.78204e-06
-2.80615e-06
1.61001e-06
1.1599e-08
-1.9004e-07
1.30803e-07
-1.38843e-07
2.91842e-07
1.49749e-07
3.95789e-07
3.33877e-07
4.48518e-07
3.17298e-07
4.33281e-07
1.89207e-07
4.7996e-07
-6.47686e-08
8.57839e-07
-9.93594e-07
1.22045e-06
-1.92544e-06
1.37452e-06
-2.40202e-06
1.37717e-06
-2.54975e-06
1.3571e-06
-2.58672e-06
1.34081e-06
-2.60917e-06
1.33302e-06
-2.63179e-06
1.3321e-06
-2.65481e-06
1.33625e-06
-2.67578e-06
1.34478e-06
-2.69397e-06
1.35776e-06
-2.71004e-06
1.37531e-06
-2.72517e-06
1.39737e-06
-2.74046e-06
1.42372e-06
-2.75681e-06
1.45427e-06
-2.77494e-06
1.48797e-06