/*--------------------------------*- C++ -*----------------------------------*\
  =========                 |
  \\      /  F ield         | OpenFOAM: The Open Source CFD Toolbox
   \\    /   O peration     | Website:  https://openfoam.org
    \\  /    A nd           | Version:  13
     \\/     M anipulation  |
\*---------------------------------------------------------------------------*/
FoamFile
{
    format      ascii;
    class       surfaceScalarField;
    location    "30";
    object      phi;
}
// * * * * * * * * * * * * * * * * * * * * * * * * * * * * * * * * * * * * * //

dimensions      [0 3 -1 0 0 0 0];

internalField   nonuniform List<scalar> 
12590
(
1.22898e-12
-1.22901e-12
2.84785e-12
-1.61891e-12
4.18138e-12
-1.33358e-12
5.31462e-12
-1.13329e-12
6.28511e-12
-9.70547e-13
7.0006e-12
-7.15531e-13
7.47906e-12
-4.78507e-13
7.67308e-12
-1.94074e-13
7.54525e-12
1.27782e-13
7.07313e-12
4.72078e-13
6.25552e-12
8.17562e-13
5.11691e-12
1.13857e-12
3.70957e-12
1.40729e-12
2.1126e-12
1.59692e-12
4.12446e-13
1.70012e-12
-1.325e-12
1.73741e-12
-3.00762e-12
1.68257e-12
-4.54397e-12
1.53632e-12
-5.81011e-12
1.2661e-12
-6.95077e-12
1.14063e-12
-7.85578e-12
9.04973e-13
-8.23912e-12
3.83312e-13
-7.69794e-12
-5.41221e-13
-4.74601e-12
-2.95197e-12
-4.74601e-12
1.03487e-12
-2.26393e-12
2.38184e-12
-2.96596e-12
3.52279e-12
-2.4746e-12
4.55946e-12
-2.17003e-12
5.54622e-12
-1.95738e-12
6.41976e-12
-1.58914e-12
7.19932e-12
-1.25814e-12
7.85934e-12
-8.54164e-13
8.38065e-12
-3.93598e-13
8.74813e-12
1.04534e-13
8.95159e-12
6.14025e-13
8.98673e-12
1.10337e-12
8.85348e-12
1.54047e-12
8.55271e-12
1.89763e-12
8.10584e-12
2.14692e-12
7.5604e-12
2.28278e-12
6.92567e-12
2.31724e-12
6.22278e-12
2.23915e-12
5.39283e-12
2.096e-12
4.60447e-12
1.92894e-12
3.74262e-12
1.76677e-12
2.7869e-12
1.33898e-12
1.74501e-12
5.0061e-13
4.78589e-13
-1.6856e-12
-4.26743e-12
1.13103e-12
-3.39502e-12
2.48581e-12
-4.32082e-12
3.69021e-12
-3.67908e-12
4.86744e-12
-3.34734e-12
6.07007e-12
-3.16009e-12
7.29087e-12
-2.81002e-12
8.3777e-12
-2.34506e-12
9.38485e-12
-1.86139e-12
1.0269e-11
-1.27779e-12
1.09885e-11
-6.15111e-13
1.14998e-11
1.02659e-13
1.17612e-11
8.41921e-13
1.17417e-11
1.55987e-12
1.14311e-11
2.20818e-12
1.0827e-11
2.75097e-12
9.92186e-12
3.18783e-12
8.71513e-12
3.5239e-12
7.30699e-12
3.64722e-12
5.79943e-12
3.60349e-12
4.2697e-12
3.45861e-12
2.93229e-12
3.10412e-12
1.6876e-12
2.58362e-12
7.44541e-13
1.44361e-12
9.92336e-14
-1.04035e-12
-4.1682e-12
1.3273e-12
-4.72239e-12
2.73857e-12
-5.73217e-12
3.99556e-12
-4.93616e-12
5.25058e-12
-4.60243e-12
6.54021e-12
-4.44981e-12
7.90886e-12
-4.17875e-12
9.1546e-12
-3.59088e-12
1.02921e-11
-2.99893e-12
1.1312e-11
-2.29784e-12
1.21689e-11
-1.47206e-12
1.28102e-11
-5.38709e-13
1.3181e-11
4.71064e-13
1.32314e-11
1.50937e-12
1.29178e-11
2.52168e-12
1.22179e-11
3.45076e-12
1.1145e-11
4.26071e-12
9.71266e-12
4.95613e-12
7.95609e-12
5.40372e-12
6.0691e-12
5.49041e-12
4.21663e-12
5.31101e-12
2.64989e-12
4.67079e-12
1.29265e-12
3.9408e-12
4.8476e-13
2.25143e-12
-1.99363e-14
-5.35715e-13
-4.18815e-12
1.51082e-12
-6.23328e-12
2.94677e-12
-7.16821e-12
4.19775e-12
-6.18722e-12
5.44118e-12
-5.84595e-12
6.70313e-12
-5.71185e-12
7.9898e-12
-5.4655e-12
9.3912e-12
-4.99236e-12
1.05239e-11
-4.13176e-12
1.15667e-11
-3.34065e-12
1.24681e-11
-2.3736e-12
1.31795e-11
-1.2502e-12
1.36368e-11
1.37204e-14
1.37693e-11
1.37672e-12
1.35136e-11
2.77737e-12
1.28276e-11
4.13665e-12
1.1723e-11
5.36527e-12
1.02473e-11
6.43175e-12
8.36754e-12
7.28338e-12
6.29571e-12
7.56218e-12
4.24985e-12
7.3568e-12
2.49398e-12
6.4266e-12
1.25145e-12
5.18328e-12
4.40165e-13
3.06265e-12
-3.10675e-14
-6.45474e-14
-4.21922e-12
1.66008e-12
-7.89344e-12
3.0863e-12
-8.59452e-12
4.2924e-12
-7.39342e-12
5.4707e-12
-7.02435e-12
6.64129e-12
-6.88253e-12
7.81124e-12
-6.63554e-12
9.01291e-12
-6.19413e-12
1.02977e-11
-5.41662e-12
1.12541e-11
-4.2972e-12
1.21401e-11
-3.25962e-12
1.28908e-11
-2.00106e-12
1.34394e-11
-5.34964e-13
1.37025e-11
1.11358e-12
1.3597e-11
2.88274e-12
1.30557e-11
4.67788e-12
1.20537e-11
6.36724e-12
1.06519e-11
7.83346e-12
8.90487e-12
9.03029e-12
6.77552e-12
9.69145e-12
4.60271e-12
9.52954e-12
2.61089e-12
8.41834e-12
1.3248e-12
6.46929e-12
3.47216e-13
4.04016e-12
-1.27158e-13
4.09754e-13
-4.34639e-12
1.78217e-12
-9.67569e-12
3.18333e-12
-9.99577e-12
4.33418e-12
-8.54437e-12
5.43082e-12
-8.12109e-12
6.48939e-12
-7.9412e-12
7.52039e-12
-7.66663e-12
8.55402e-12
-7.22785e-12
9.69888e-12
-6.56157e-12
1.06339e-11
-5.23235e-12
1.14838e-11
-4.10962e-12
1.22622e-11
-2.77947e-12
1.29175e-11
-1.19035e-12
1.33657e-11
6.65279e-13
1.35068e-11
2.74152e-12
1.3245e-11
4.93959e-12
1.25065e-11
7.10567e-12
1.13013e-11
9.0386e-12
9.71091e-12
1.06206e-11
7.66323e-12
1.17391e-11
5.41599e-12
1.17767e-11
3.07951e-12
1.07548e-11
1.54162e-12
8.00712e-12
3.51485e-13
5.23022e-12
-1.95233e-13
9.56398e-13
-4.54164e-12
1.88568e-12
-1.15615e-11
3.26682e-12
-1.1377e-11
4.37704e-12
-9.65468e-12
5.40543e-12
-9.14958e-12
6.36246e-12
-8.89833e-12
7.25827e-12
-8.56254e-12
8.12319e-12
-8.09286e-12
9.00028e-12
-7.43876e-12
1.01699e-11
-6.40208e-12
1.09032e-11
-4.84294e-12
1.16791e-11
-3.55556e-12
1.24396e-11
-1.95088e-12
1.31078e-11
-2.98718e-15
1.35698e-11
2.27936e-12
1.36961e-11
4.81321e-12
1.33613e-11
7.44046e-12
1.24756e-11
9.92419e-12
1.10812e-11
1.20149e-11
9.23399e-12
1.35862e-11
6.79034e-12
1.42203e-11
4.17774e-12
1.33673e-11
1.94409e-12
1.02407e-11
8.514e-13
6.32283e-12
-9.51786e-14
1.9029e-12
-4.63683e-12
1.97716e-12
-1.35387e-11
3.36459e-12
-1.27646e-11
4.48098e-12
-1.07712e-11
5.50237e-12
-1.01711e-11
6.43408e-12
-9.83014e-12
7.28811e-12
-9.41667e-12
8.09724e-12
-8.90209e-12
8.91733e-12
-8.25894e-12
9.89758e-12
-7.38241e-12
1.06568e-11
-5.60226e-12
1.14779e-11
-4.3767e-12
1.23644e-11
-2.83746e-12
1.32742e-11
-9.12894e-13
1.41025e-11
1.45102e-12
1.46935e-11
4.22207e-12
1.48671e-11
7.2668e-12
1.44461e-11
1.03451e-11
1.33382e-11
1.31228e-11
1.1585e-11
1.53392e-11
9.07639e-12
1.67288e-11
6.16222e-12
1.62814e-11
3.10693e-12
1.32959e-11
1.43349e-12
7.9962e-12
1.33096e-14
3.323e-12
-4.62353e-12
2.05632e-12
-1.55951e-11
3.48703e-12
-1.41954e-11
4.67326e-12
-1.19575e-11
5.77407e-12
-1.1272e-11
6.79036e-12
-1.08465e-11
7.72977e-12
-1.03562e-11
8.61406e-12
-9.78646e-12
9.47665e-12
-9.12161e-12
1.03593e-11
-8.26512e-12
1.14026e-11
-6.64564e-12
1.22277e-11
-5.20192e-12
1.32076e-11
-3.81739e-12
1.43165e-11
-2.02183e-12
1.54808e-11
2.86703e-13
1.65455e-11
3.15733e-12
1.72828e-11
6.52941e-12
1.74297e-11
1.01982e-11
1.67477e-11
1.38047e-11
1.5155e-11
1.69318e-11
1.26418e-11
1.9242e-11
9.28021e-12
1.96429e-11
5.29626e-12
1.72798e-11
2.44665e-12
1.08457e-11
1.52858e-13
5.61673e-12
-4.47069e-12
2.1184e-12
-1.77136e-11
3.63436e-12
-1.57115e-11
4.96828e-12
-1.32916e-11
6.25804e-12
-1.25619e-11
7.50264e-12
-1.20913e-11
8.70698e-12
-1.15606e-11
9.87744e-12
-1.0957e-11
1.10164e-11
-1.02606e-11
1.21171e-11
-9.36588e-12
1.33125e-11
-7.8411e-12
1.43303e-11
-6.2197e-12
1.54748e-11
-4.96189e-12
1.67669e-11
-3.31403e-12
1.81931e-11
-1.1395e-12
1.96529e-11
1.69747e-12
2.09212e-11
5.2611e-12
2.1662e-11
9.45738e-12
2.14958e-11
1.39709e-11
2.01441e-11
1.82835e-11
1.75432e-11
2.18428e-11
1.33412e-11
2.3845e-11
8.43246e-12
2.21885e-11
3.34963e-12
1.59285e-11
7.89832e-13
8.17648e-12
-3.68086e-12
2.15558e-12
-1.98694e-11
3.79875e-12
-1.73548e-11
5.36672e-12
-1.48597e-11
6.97514e-12
-1.41704e-11
8.62151e-12
-1.37377e-11
1.03084e-11
-1.32476e-11
1.20289e-11
-1.26776e-11
1.37521e-11
-1.19838e-11
1.54203e-11
-1.10342e-11
1.68839e-11
-9.30473e-12
1.8379e-11
-7.71479e-12
1.98759e-11
-6.45876e-12
2.14219e-11
-4.86006e-12
2.3056e-11
-2.77356e-12
2.47508e-11
2.72897e-15
2.63552e-11
3.65674e-12
2.75445e-11
8.26808e-12
2.78324e-11
1.36829e-11
2.66911e-11
1.94248e-11
2.37616e-11
2.47723e-11
1.89483e-11
2.86582e-11
1.25469e-11
2.85898e-11
5.94531e-12
2.25301e-11
1.33241e-12
1.27893e-11
-2.34847e-12
2.15831e-12
-2.20278e-11
3.97036e-12
-1.9167e-11
5.86148e-12
-1.6751e-11
7.92457e-12
-1.62336e-11
1.01583e-11
-1.59715e-11
1.25606e-11
-1.565e-11
1.51138e-11
-1.52308e-11
1.77512e-11
-1.46212e-11
2.03577e-11
-1.36406e-11
2.25785e-11
-1.15255e-11
2.50798e-11
-1.0216e-11
2.73894e-11
-8.76828e-12
2.96175e-11
-7.08816e-12
3.16687e-11
-4.82472e-12
3.34786e-11
-1.80707e-12
3.50227e-11
2.11274e-12
3.61833e-11
7.10749e-12
3.65957e-11
1.32706e-11
3.56805e-11
2.03401e-11
3.26796e-11
2.77732e-11
2.71591e-11
3.41787e-11
1.90812e-11
3.66677e-11
1.03954e-11
3.12159e-11
2.45384e-12
2.07309e-11
1.05361e-13
2.12e-12
-2.41479e-11
4.14017e-12
-2.11873e-11
6.44916e-12
-1.90601e-11
9.11039e-12
-1.8895e-11
1.21204e-11
-1.89817e-11
1.5466e-11
-1.89956e-11
1.91111e-11
-1.8876e-11
2.29789e-11
-1.8489e-11
2.68315e-11
-1.74932e-11
3.08509e-11
-1.55449e-11
3.52122e-11
-1.45772e-11
3.94622e-11
-1.30182e-11
4.29995e-11
-1.06253e-11
4.58172e-11
-7.64237e-12
4.79551e-11
-3.9448e-12
4.9446e-11
6.21927e-13
5.03021e-11
6.25143e-12
5.03028e-11
1.327e-11
4.88101e-11
2.18328e-11
4.51694e-11
3.14139e-11
3.85388e-11
4.08093e-11
2.84129e-11
4.67937e-11
1.63242e-11
4.33045e-11
5.22183e-12
3.18332e-11
5.32718e-12
2.03624e-12
-2.61843e-11
4.29511e-12
-2.34463e-11
7.0967e-12
-2.18618e-11
1.04782e-11
-2.22766e-11
1.44471e-11
-2.29506e-11
1.8956e-11
-2.35045e-11
2.39153e-11
-2.38353e-11
2.93081e-11
-2.38818e-11
3.49264e-11
-2.31115e-11
4.14346e-11
-2.2053e-11
4.77914e-11
-2.0934e-11
5.37537e-11
-1.89804e-11
5.91342e-11
-1.60056e-11
6.35765e-11
-1.20846e-11
6.677e-11
-7.13825e-12
6.85997e-11
-1.20762e-12
6.91898e-11
5.66135e-12
6.84383e-11
1.40216e-11
6.62483e-11
2.40228e-11
6.1889e-11
3.57733e-11
5.4056e-11
4.86424e-11
4.16938e-11
5.91558e-11
2.53774e-11
5.96209e-11
8.85312e-12
4.83574e-11
1.41803e-11
1.90204e-12
-2.80864e-11
4.41451e-12
-2.59588e-11
7.73601e-12
-2.51833e-11
1.18374e-11
-2.63779e-11
1.66797e-11
-2.77929e-11
2.24535e-11
-2.92784e-11
2.91022e-11
-3.04841e-11
3.60865e-11
-3.08661e-11
4.34389e-11
-3.04639e-11
5.17361e-11
-3.03501e-11
6.02255e-11
-2.94233e-11
6.86839e-11
-2.74387e-11
7.69004e-11
-2.42222e-11
8.44005e-11
-1.95846e-11
9.07198e-11
-1.34574e-11
9.51163e-11
-5.60411e-12
9.66572e-11
4.1205e-12
9.54384e-11
1.52405e-11
9.19923e-11
2.74688e-11
8.5984e-11
4.17816e-11
7.64617e-11
5.81646e-11
6.14715e-11
7.4146e-11
3.98993e-11
8.1193e-11
1.51744e-11
7.30822e-11
2.93546e-11
1.70518e-12
-2.97915e-11
4.38835e-12
-2.86418e-11
8.23439e-12
-2.90292e-11
1.33167e-11
-3.14602e-11
1.96954e-11
-3.41716e-11
2.70146e-11
-3.65977e-11
3.50201e-11
-3.84897e-11
4.35966e-11
-3.94426e-11
5.36966e-11
-4.05641e-11
6.43259e-11
-4.09795e-11
7.53093e-11
-4.04067e-11
8.64119e-11
-3.85414e-11
9.73167e-11
-3.5127e-11
1.07741e-10
-3.00085e-11
1.17239e-10
-2.29561e-11
1.25322e-10
-1.36864e-11
1.31486e-10
-2.04438e-12
1.34134e-10
1.25931e-11
1.31073e-10
3.05294e-11
1.23875e-10
4.898e-11
1.11894e-10
7.0145e-11
9.34798e-11
9.25604e-11
6.54073e-11
1.09265e-10
2.70796e-11
1.1141e-10
5.64341e-11
1.51896e-12
-3.13102e-11
4.61041e-12
-3.17329e-11
9.41511e-12
-3.38336e-11
1.56449e-11
-3.76897e-11
2.31305e-11
-4.16571e-11
3.17142e-11
-4.51814e-11
4.1205e-11
-4.79807e-11
5.25877e-11
-5.08256e-11
6.50617e-11
-5.30383e-11
7.83674e-11
-5.42855e-11
9.22349e-11
-5.42745e-11
1.06375e-10
-5.26815e-11
1.20443e-10
-4.91959e-11
1.34259e-10
-4.38245e-11
1.4765e-10
-3.63472e-11
1.60233e-10
-2.62697e-11
1.71354e-10
-1.31655e-11
1.8066e-10
3.28668e-12
1.86558e-10
2.46322e-11
1.82997e-10
5.2541e-11
1.71537e-10
8.16044e-11
1.49631e-10
1.14467e-10
1.13962e-10
1.44934e-10
5.34976e-11
1.71874e-10
1.09932e-10
1.44301e-12
-3.27528e-11
5.12101e-12
-3.54104e-11
1.06705e-11
-3.93826e-11
1.7923e-11
-4.4942e-11
2.66604e-11
-5.03944e-11
3.6565e-11
-5.50862e-11
4.8572e-11
-5.99881e-11
6.21954e-11
-6.44493e-11
7.71041e-11
-6.79476e-11
9.31489e-11
-7.03308e-11
1.1014e-10
-7.12663e-11
1.27796e-10
-7.0338e-11
1.45302e-10
-6.6702e-11
1.62868e-10
-6.13908e-11
1.80239e-10
-5.37184e-11
1.97025e-10
-4.30561e-11
2.1353e-10
-2.96705e-11
2.2905e-10
-1.22336e-11
2.44362e-10
9.3196e-12
2.59256e-10
3.76466e-11
2.61173e-10
7.96873e-11
2.48452e-10
1.27188e-10
2.12646e-10
1.8074e-10
1.31691e-10
2.52829e-10
2.41623e-10
1.50345e-12
-3.42556e-11
5.65317e-12
-3.95595e-11
1.20756e-11
-4.58045e-11
2.04095e-11
-5.32755e-11
3.06467e-11
-6.06316e-11
4.31797e-11
-6.76195e-11
5.74776e-11
-7.42865e-11
7.32782e-11
-8.02505e-11
9.05164e-11
-8.51865e-11
1.08976e-10
-8.87911e-11
1.28441e-10
-9.07326e-11
1.48761e-10
-9.06581e-11
1.70284e-10
-8.82261e-11
1.92296e-10
-8.34031e-11
2.14066e-10
-7.54892e-11
2.34506e-10
-6.34961e-11
2.54447e-10
-4.96124e-11
2.73422e-10
-3.12082e-11
2.93161e-10
-1.04203e-11
3.16798e-10
1.40096e-11
3.49286e-10
4.7199e-11
3.84116e-10
9.23582e-11
4.22376e-10
1.42479e-10
4.00849e-10
2.74356e-10
6.42472e-10
1.07899e-12
-3.53339e-11
4.90763e-12
-4.33873e-11
1.08592e-11
-5.17555e-11
1.87668e-11
-6.11828e-11
2.85445e-11
-7.04094e-11
4.01267e-11
-7.92021e-11
5.33042e-11
-8.74646e-11
6.79975e-11
-9.49446e-11
8.41518e-11
-1.01342e-10
1.01707e-10
-1.06347e-10
1.20627e-10
-1.09653e-10
1.4093e-10
-1.10962e-10
1.62715e-10
-1.10012e-10
1.85909e-10
-1.06598e-10
2.10795e-10
-1.00375e-10
2.38342e-10
-9.10442e-11
2.67429e-10
-7.86992e-11
2.97208e-10
-6.09873e-11
3.28971e-10
-4.21843e-11
3.62631e-10
-1.96505e-11
3.99878e-10
9.95254e-12
4.46023e-10
4.62127e-11
5.1199e-10
7.65118e-11
7.10004e-10
7.63423e-11
-1.61334e-11
1.36861e-09
1.21672e-12
-3.65498e-11
5.48347e-12
-4.76533e-11
1.21734e-11
-5.84449e-11
2.10757e-11
-7.00848e-11
3.20415e-11
-8.13753e-11
4.49525e-11
-9.21135e-11
5.96849e-11
-1.02198e-10
7.61611e-11
-1.11422e-10
9.43323e-11
-1.19514e-10
1.14173e-10
-1.26189e-10
1.3569e-10
-1.31171e-10
1.58931e-10
-1.34204e-10
1.83985e-10
-1.35067e-10
2.10965e-10
-1.33579e-10
2.40134e-10
-1.29545e-10
2.71894e-10
-1.22804e-10
3.06433e-10
-1.13239e-10
3.45955e-10
-1.00509e-10
3.8909e-10
-8.53197e-11
4.3641e-10
-6.69705e-11
4.92357e-10
-4.59952e-11
5.62423e-10
-2.3853e-11
6.50003e-10
-1.10682e-11
7.51969e-10
-2.56235e-11
-8.79149e-11
8.2375e-10
1.3516e-12
-3.79005e-11
6.02237e-12
-5.23232e-11
1.33625e-11
-6.57844e-11
2.31173e-11
-7.98393e-11
3.51234e-11
-9.33816e-11
4.92542e-11
-1.06245e-10
6.54004e-11
-1.18345e-10
8.34874e-11
-1.2951e-10
1.03478e-10
-1.39505e-10
1.25368e-10
-1.48081e-10
1.49191e-10
-1.54995e-10
1.75019e-10
-1.60033e-10
2.0297e-10
-1.63019e-10
2.33209e-10
-1.63818e-10
2.65991e-10
-1.62327e-10
3.01683e-10
-1.58497e-10
3.40786e-10
-1.52343e-10
3.84164e-10
-1.43888e-10
4.32195e-10
-1.33351e-10
4.86016e-10
-1.20791e-10
5.46813e-10
-1.06792e-10
6.15906e-10
-9.29465e-11
6.88657e-10
-8.38187e-11
7.47638e-10
-8.46051e-11
-8.8949e-11
7.48672e-10
1.46862e-12
-3.93682e-11
6.47859e-12
-5.73322e-11
1.43631e-11
-7.36682e-11
2.48467e-11
-9.03226e-11
3.77523e-11
-1.06287e-10
5.29405e-11
-1.21434e-10
7.03033e-11
-1.35708e-10
8.97689e-11
-1.48976e-10
1.11305e-10
-1.61043e-10
1.34917e-10
-1.71693e-10
1.60644e-10
-1.80723e-10
1.88564e-10
-1.87954e-10
2.18792e-10
-1.93248e-10
2.51485e-10
-1.96511e-10
2.86855e-10
-1.97698e-10
3.25176e-10
-1.96818e-10
3.66762e-10
-1.93929e-10
4.1199e-10
-1.89115e-10
4.61155e-10
-1.82516e-10
5.14508e-10
-1.74145e-10
5.71715e-10
-1.63999e-10
6.31197e-10
-1.52429e-10
6.86315e-10
-1.38936e-10
7.22318e-10
-1.20608e-10
-8.49905e-11
7.18359e-10
1.55483e-12
-4.09221e-11
6.82611e-12
-6.26026e-11
1.5143e-11
-8.19845e-11
2.62136e-11
-1.01393e-10
3.98481e-11
-1.19922e-10
5.58966e-11
-1.37483e-10
7.42461e-11
-1.54059e-10
9.48237e-11
-1.69555e-10
1.17595e-10
-1.83815e-10
1.4256e-10
-1.9666e-10
1.6975e-10
-2.07915e-10
1.99227e-10
-2.17431e-10
2.31075e-10
-2.25097e-10
2.65403e-10
-2.3084e-10
3.02338e-10
-2.34633e-10
3.42003e-10
-2.36485e-10
3.84496e-10
-2.36422e-10
4.29841e-10
-2.34461e-10
4.77865e-10
-2.3054e-10
5.2809e-10
-2.2437e-10
5.79384e-10
-2.15293e-10
6.28957e-10
-2.02001e-10
6.71851e-10
-1.81831e-10
6.9974e-10
-1.48496e-10
-9.09027e-11
7.05652e-10
1.60785e-12
-4.2529e-11
7.06298e-12
-6.80567e-11
1.56992e-11
-9.062e-11
2.72114e-11
-1.12905e-10
4.1399e-11
-1.3411e-10
5.81037e-11
-1.54188e-10
7.72064e-11
-1.73162e-10
9.86274e-11
-1.90977e-10
1.22323e-10
-2.07512e-10
1.48281e-10
-2.22619e-10
1.76513e-10
-2.36148e-10
2.07049e-10
-2.47969e-10
2.39932e-10
-2.57981e-10
2.75205e-10
-2.66114e-10
3.12894e-10
-2.72323e-10
3.52987e-10
-2.76578e-10
3.95389e-10
-2.78824e-10
4.39862e-10
-2.78934e-10
4.85927e-10
-2.76606e-10
5.32757e-10
-2.712e-10
5.78966e-10
-2.61502e-10
6.22321e-10
-2.45356e-10
6.59587e-10
-2.19097e-10
6.87696e-10
-1.76605e-10
-1.08993e-10
7.05786e-10
1.6281e-12
-4.41561e-11
7.19127e-12
-7.36189e-11
1.60352e-11
-9.94632e-11
2.78461e-11
-1.24715e-10
4.24155e-11
-1.48679e-10
5.95785e-11
-1.71351e-10
7.92085e-11
-1.92793e-10
1.01216e-10
-2.12986e-10
1.25544e-10
-2.31842e-10
1.52162e-10
-2.49238e-10
1.81056e-10
-2.65043e-10
2.12223e-10
-2.79137e-10
2.45658e-10
-2.91417e-10
2.81341e-10
-3.01798e-10
3.19217e-10
-3.102e-10
3.59168e-10
-3.16529e-10
4.00974e-10
-3.2063e-10
4.44263e-10
-3.22224e-10
4.88454e-10
-3.20797e-10
5.32697e-10
-3.15443e-10
5.75838e-10
-3.04643e-10
6.16458e-10
-2.85976e-10
6.53151e-10
-2.5579e-10
6.85523e-10
-2.08977e-10
-1.39198e-10
7.15729e-10
1.6176e-12
-4.57727e-11
7.2179e-12
-7.92181e-11
1.61639e-11
-1.08408e-10
2.81388e-11
-1.3669e-10
4.29298e-11
-1.6347e-10
6.03664e-11
-1.88789e-10
8.03143e-11
-2.12742e-10
1.02673e-10
-2.35346e-10
1.2737e-10
-2.5654e-10
1.54354e-10
-2.76224e-10
1.83587e-10
-2.94277e-10
2.15033e-10
-3.10584e-10
2.48647e-10
-3.25031e-10
2.8436e-10
-3.37511e-10
3.2206e-10
-3.47901e-10
3.6157e-10
-3.5604e-10
4.02617e-10
-3.61678e-10
4.44806e-10
-3.64413e-10
4.876e-10
-3.6359e-10
5.30323e-10
-3.58166e-10
5.72227e-10
-3.46547e-10
6.12662e-10
-3.26411e-10
6.51459e-10
-2.94587e-10
6.89614e-10
-2.47132e-10
-1.79787e-10
7.30203e-10
1.58018e-12
-4.73518e-11
7.15315e-12
-8.479e-11
1.61057e-11
-1.1736e-10
2.81228e-11
-1.48707e-10
4.29903e-11
-1.78338e-10
6.05344e-11
-2.06333e-10
8.06134e-11
-2.32822e-10
1.03115e-10
-2.57849e-10
1.27954e-10
-2.8138e-10
1.55058e-10
-3.03329e-10
1.84367e-10
-3.23588e-10
2.15819e-10
-3.42037e-10
2.49339e-10
-3.58553e-10
2.84829e-10
-3.73002e-10
3.22148e-10
-3.85221e-10
3.611e-10
-3.94992e-10
4.01418e-10
-4.01996e-10
4.42756e-10
-4.05751e-10
4.84702e-10
-4.05536e-10
5.26824e-10
-4.00288e-10
5.68774e-10
-3.88497e-10
6.10495e-10
-3.68131e-10
6.52543e-10
-3.36635e-10
6.96534e-10
-2.91123e-10
-2.28863e-10
7.4561e-10
1.5199e-12
-4.88705e-11
7.01013e-12
-9.02791e-11
1.58859e-11
-1.26235e-10
2.78387e-11
-1.60659e-10
4.26566e-11
-1.93156e-10
6.01636e-11
-2.23841e-10
8.02124e-11
-2.52872e-10
1.02681e-10
-2.8032e-10
1.27471e-10
-3.06171e-10
1.54495e-10
-3.30355e-10
1.83675e-10
-3.52769e-10
2.14931e-10
-3.73294e-10
2.48171e-10
-3.91794e-10
2.83283e-10
-4.08114e-10
3.20122e-10
-4.22061e-10
3.58505e-10
-4.33376e-10
3.98208e-10
-4.41699e-10
4.38971e-10
-4.46515e-10
4.80535e-10
-4.471e-10
5.22701e-10
-4.42454e-10
5.65448e-10
-4.31245e-10
6.09112e-10
-4.11795e-10
6.54625e-10
-3.82148e-10
7.0378e-10
-3.40278e-10
-2.84507e-10
7.59423e-10
1.44181e-12
-5.03112e-11
6.80312e-12
-9.56392e-11
1.55326e-11
-1.34964e-10
2.73318e-11
-1.72458e-10
4.19935e-11
-2.07818e-10
5.93421e-11
-2.4119e-10
7.92262e-11
-2.72757e-10
1.01517e-10
-3.02612e-10
1.26105e-10
-3.3076e-10
1.52892e-10
-3.57144e-10
1.8179e-10
-3.81668e-10
2.12707e-10
-4.04212e-10
2.45545e-10
-4.24633e-10
2.80192e-10
-4.42762e-10
3.16518e-10
-4.58387e-10
3.54371e-10
-4.7123e-10
3.93588e-10
-4.80915e-10
4.34008e-10
-4.86935e-10
4.75515e-10
-4.88608e-10
5.18107e-10
-4.85045e-10
5.61992e-10
-4.7513e-10
6.07737e-10
-4.57539e-10
6.56422e-10
-4.30833e-10
7.09796e-10
-3.93652e-10
-3.45031e-10
7.7032e-10
1.35047e-12
-5.16604e-11
6.54701e-12
-1.00834e-10
1.50744e-11
-1.4349e-10
2.66476e-11
-1.84031e-10
4.10666e-11
-2.22237e-10
5.8158e-11
-2.58282e-10
7.77691e-11
-2.92369e-10
9.97664e-11
-3.24611e-10
1.24033e-10
-3.55028e-10
1.50467e-10
-3.83579e-10
1.7897e-10
-4.10173e-10
2.0945e-10
-4.34693e-10
2.41811e-10
-4.56995e-10
2.75951e-10
-4.76903e-10
3.11762e-10
-4.942e-10
3.49136e-10
-5.08605e-10
3.87973e-10
-5.19753e-10
4.28207e-10
-5.27169e-10
4.69844e-10
-5.30245e-10
5.13025e-10
-5.28226e-10
5.58106e-10
-5.20211e-10
6.05765e-10
-5.05198e-10
6.57102e-10
-4.8217e-10
7.13709e-10
-4.50258e-10
-4.08985e-10
7.77663e-10
1.25071e-12
-5.29098e-11
6.25574e-12
-1.05838e-10
1.45386e-11
-1.51772e-10
2.58297e-11
-1.95321e-10
3.99381e-11
-2.36346e-10
5.66953e-11
-2.7504e-10
7.59488e-11
-3.11624e-10
9.75635e-11
-3.46227e-10
1.2142e-10
-3.78887e-10
1.47413e-10
-4.09573e-10
1.75444e-10
-4.38206e-10
2.05422e-10
-4.64673e-10
2.37259e-10
-4.88833e-10
2.70871e-10
-5.10515e-10
3.06177e-10
-5.29507e-10
3.43113e-10
-5.45541e-10
3.81638e-10
-5.58279e-10
4.21766e-10
-5.67297e-10
4.63595e-10
-5.72075e-10
5.07365e-10
-5.71996e-10
5.53515e-10
-5.66361e-10
6.02755e-10
-5.54439e-10
6.56129e-10
-5.35544e-10
7.1504e-10
-5.09169e-10
-4.75157e-10
7.81212e-10
1.14634e-12
-5.40548e-11
5.94216e-12
-1.10633e-10
1.39501e-11
-1.59779e-10
2.49176e-11
-2.06288e-10
3.86648e-11
-2.50093e-10
5.50291e-11
-2.91405e-10
7.38614e-11
-3.30457e-10
9.50273e-11
-3.67394e-10
1.18408e-10
-4.02269e-10
1.43897e-10
-4.35064e-10
1.714e-10
-4.65711e-10
2.00833e-10
-4.94106e-10
2.32118e-10
-5.20119e-10
2.6519e-10
-5.43588e-10
2.99997e-10
-5.64315e-10
3.36512e-10
-5.82057e-10
3.74748e-10
-5.96515e-10
4.14777e-10
-6.07326e-10
4.56766e-10
-6.14063e-10
5.0101e-10
-6.1624e-10
5.47985e-10
-6.13336e-10
5.98386e-10
-6.0484e-10
6.53166e-10
-5.90323e-10
7.13532e-10
-5.69535e-10
-5.42531e-10
7.80906e-10
1.04116e-12
-5.50946e-11
5.617e-12
-1.15207e-10
1.33299e-11
-1.67491e-10
2.39453e-11
-2.16903e-10
3.72951e-11
-2.63443e-10
5.32246e-11
-3.07335e-10
7.15893e-11
-3.48823e-10
9.22581e-11
-3.88064e-10
1.15114e-10
-4.25126e-10
1.40056e-10
-4.60006e-10
1.66993e-10
-4.92649e-10
1.95849e-10
-5.22963e-10
2.26559e-10
-5.50831e-10
2.59078e-10
-5.76107e-10
2.93378e-10
-5.98615e-10
3.29466e-10
-6.18145e-10
3.67392e-10
-6.34441e-10
4.07273e-10
-6.47208e-10
4.49315e-10
-6.56105e-10
4.93843e-10
-6.60768e-10
5.41332e-10
-6.60825e-10
5.92436e-10
-6.55944e-10
6.48001e-10
-6.45887e-10
7.09053e-10
-6.30588e-10
-6.10236e-10
7.76758e-10
9.3764e-13
-5.60308e-11
5.2893e-12
-1.19557e-10
1.26958e-11
-1.74896e-10
2.2941e-11
-2.27148e-10
3.58694e-11
-2.76371e-10
5.1335e-11
-3.22801e-10
6.91998e-11
-3.66689e-10
8.93373e-11
-4.08203e-10
1.11635e-10
-4.47426e-10
1.35996e-10
-4.84369e-10
1.62337e-10
-5.18992e-10
1.90591e-10
-5.51218e-10
2.20705e-10
-5.80946e-10
2.52649e-10
-6.08052e-10
2.86419e-10
-6.32386e-10
3.22045e-10
-6.53771e-10
3.59605e-10
-6.72002e-10
3.99242e-10
-6.86845e-10
4.41182e-10
-6.98045e-10
4.85754e-10
-7.0534e-10
5.33414e-10
-7.08485e-10
5.84755e-10
-7.07286e-10
6.40516e-10
-7.01648e-10
7.01559e-10
-6.91631e-10
-6.7751e-10
7.68834e-10
8.38225e-13
-5.68676e-11
4.96579e-12
-1.23683e-10
1.20613e-11
-1.81991e-10
2.19268e-11
-2.37013e-10
3.44192e-11
-2.88864e-10
4.94024e-11
-3.37785e-10
6.67453e-11
-3.84033e-10
8.63274e-11
-4.27786e-10
1.08042e-10
-4.69142e-10
1.31798e-10
-5.08126e-10
1.57518e-10
-5.44714e-10
1.85144e-10
-5.78846e-10
2.14636e-10
-6.10439e-10
2.45976e-10
-6.39393e-10
2.79175e-10
-6.65585e-10
3.14281e-10
-6.88877e-10
3.51388e-10
-7.0911e-10
3.90652e-10
-7.26109e-10
4.32302e-10
-7.39695e-10
4.76655e-10
-7.49693e-10
5.24131e-10
-7.55961e-10
5.75257e-10
-7.58412e-10
6.30665e-10
-7.57056e-10
6.91073e-10
-7.52039e-10
-7.43687e-10
7.57249e-10
7.44084e-13
-5.76102e-11
4.65163e-12
-1.27589e-10
1.14368e-11
-1.88775e-10
2.09191e-11
-2.46495e-10
3.29685e-11
-3.00913e-10
4.74581e-11
-3.52275e-10
6.42648e-11
-4.00841e-10
8.32746e-11
-4.46798e-10
1.04387e-10
-4.90256e-10
1.27516e-10
-5.31257e-10
1.52592e-10
-5.69792e-10
1.79565e-10
-6.0582e-10
2.08402e-10
-6.39278e-10
2.39097e-10
-6.70088e-10
2.7167e-10
-6.98159e-10
3.06179e-10
-7.23387e-10
3.42725e-10
-7.45657e-10
3.81465e-10
-7.64849e-10
4.22619e-10
-7.80849e-10
4.66481e-10
-7.93555e-10
5.13425e-10
-8.02905e-10
5.63909e-10
-8.08895e-10
6.18463e-10
-8.1161e-10
6.77677e-10
-8.11253e-10
-8.08176e-10
7.42166e-10
6.56512e-13
-5.82652e-11
4.3501e-12
-1.31281e-10
1.08292e-11
-1.95252e-10
1.99298e-11
-2.55595e-10
3.15338e-11
-3.12517e-10
4.55242e-11
-3.66266e-10
6.17855e-11
-4.17103e-10
8.02106e-11
-4.65224e-10
1.00705e-10
-5.10752e-10
1.23188e-10
-5.53742e-10
1.47597e-10
-5.94202e-10
1.73887e-10
-6.32111e-10
2.02032e-10
-6.67424e-10
2.32032e-10
-7.00088e-10
2.63912e-10
-7.3004e-10
2.97733e-10
-7.57209e-10
3.33596e-10
-7.8152e-10
3.7165e-10
-8.02903e-10
4.12096e-10
-8.21295e-10
4.55197e-10
-8.36656e-10
5.01279e-10
-8.48987e-10
5.50726e-10
-8.58343e-10
6.03977e-10
-8.64861e-10
6.61506e-10
-8.68781e-10
-8.70465e-10
7.23796e-10
5.75741e-13
-5.88393e-11
4.06345e-12
-1.34767e-10
1.0243e-11
-2.01431e-10
1.89661e-11
-2.64317e-10
3.01262e-11
-3.23677e-10
4.36152e-11
-3.79756e-10
5.93254e-11
-4.32814e-10
7.71562e-11
-4.83056e-10
9.70183e-11
-5.30615e-10
1.18837e-10
-5.75562e-10
1.42555e-10
-6.17921e-10
1.68129e-10
-6.57686e-10
1.95539e-10
-6.94836e-10
2.24787e-10
-7.29337e-10
2.55899e-10
-7.61153e-10
2.88934e-10
-7.90244e-10
3.23985e-10
-8.16572e-10
3.61187e-10
-8.40105e-10
4.00717e-10
-8.60826e-10
4.42802e-10
-8.78742e-10
4.87715e-10
-8.939e-10
5.35773e-10
-9.064e-10
5.87326e-10
-9.16414e-10
6.42746e-10
-9.24201e-10
-9.3012e-10
7.024e-10
5.02629e-13
-5.93403e-11
3.7926e-12
-1.38056e-10
9.68058e-12
-2.07317e-10
1.80326e-11
-2.72668e-10
2.8752e-11
-3.34396e-10
4.17397e-11
-3.92744e-10
5.6895e-11
-4.47971e-10
7.41234e-11
-5.00286e-10
9.33408e-11
-5.49834e-10
1.14477e-10
-5.967e-10
1.37476e-10
-6.40922e-10
1.62301e-10
-6.82512e-10
1.8893e-10
-7.21466e-10
2.17365e-10
-7.57773e-10
2.4763e-10
-7.91419e-10
2.79777e-10
-8.22392e-10
3.13888e-10
-8.50683e-10
3.50077e-10
-8.76294e-10
3.88495e-10
-8.99243e-10
4.29328e-10
-9.19575e-10
4.72799e-10
-9.3737e-10
5.19157e-10
-9.52758e-10
5.68674e-10
-9.65932e-10
6.21629e-10
-9.77155e-10
-9.86778e-10
6.78287e-10
4.3577e-13
-5.97745e-11
3.53767e-12
-1.41156e-10
9.14289e-12
-2.12921e-10
1.71307e-11
-2.80655e-10
2.74141e-11
-3.44679e-10
3.99017e-11
-4.05232e-10
5.44997e-11
-4.6257e-10
7.11186e-11
-5.16906e-10
8.96788e-11
-5.68396e-10
1.10113e-10
-6.17136e-10
1.32369e-10
-6.63179e-10
1.56407e-10
-7.06552e-10
1.82208e-10
-7.47268e-10
2.09769e-10
-7.85335e-10
2.39109e-10
-8.20759e-10
2.70269e-10
-8.53552e-10
3.03315e-10
-8.8373e-10
3.38341e-10
-9.1132e-10
3.75467e-10
-9.3637e-10
4.1484e-10
-9.58948e-10
4.56631e-10
-9.79161e-10
5.01028e-10
-9.97156e-10
5.4823e-10
-1.01313e-09
5.98432e-10
-1.02736e-09
-1.04015e-09
6.51809e-10
3.75818e-13
-6.01486e-11
3.29817e-12
-1.44077e-10
8.6294e-12
-2.18251e-10
1.62606e-11
-2.88286e-10
2.6113e-11
-3.54532e-10
3.81026e-11
-4.17222e-10
5.21413e-11
-4.76609e-10
6.81444e-11
-5.32911e-10
8.60357e-11
-5.86289e-10
1.0575e-10
-6.36852e-10
1.27235e-10
-6.84665e-10
1.50453e-10
-7.2977e-10
1.75379e-10
-7.72195e-10
2.02006e-10
-8.11963e-10
2.30345e-10
-8.49099e-10
2.60425e-10
-8.83632e-10
2.92294e-10
-9.15599e-10
3.26022e-10
-9.45049e-10
3.61699e-10
-9.72047e-10
3.99433e-10
-9.96682e-10
4.39347e-10
-1.01907e-09
4.8157e-10
-1.03938e-09
5.26236e-10
-1.0578e-09
5.73465e-10
-1.07459e-09
-1.09004e-09
6.23354e-10
3.22074e-13
-6.0469e-11
3.07345e-12
-1.46826e-10
8.13914e-12
-2.23316e-10
1.54209e-11
-2.95567e-10
2.48479e-11
-3.63959e-10
3.63418e-11
-4.28716e-10
4.98199e-11
-4.90088e-10
6.52015e-11
-5.48293e-10
8.24129e-11
-6.03502e-10
1.0139e-10
-6.5583e-10
1.22081e-10
-7.05357e-10
1.44444e-10
-7.52135e-10
1.68452e-10
-7.96204e-10
1.94091e-10
-8.37603e-10
2.2136e-10
-8.76369e-10
2.50276e-10
-9.12548e-10
2.80869e-10
-9.46192e-10
3.13184e-10
-9.77364e-10
3.4728e-10
-1.00614e-09
3.83229e-10
-1.03263e-09
4.21107e-10
-1.05695e-09
4.60994e-10
-1.07927e-09
5.02962e-10
-1.09977e-09
5.47066e-10
-1.11869e-09
-1.13631e-09
5.93332e-10
2.74314e-13
-6.07416e-11
2.86239e-12
-1.49413e-10
7.67048e-12
-2.28122e-10
1.46102e-11
-3.02505e-10
2.36169e-11
-3.72965e-10
3.4618e-11
-4.39718e-10
4.75349e-11
-5.03006e-10
6.22902e-11
-5.6305e-10
7.88122e-11
-6.20025e-10
9.7037e-11
-6.74057e-10
1.16911e-10
-7.25233e-10
1.3839e-10
-7.73615e-10
1.61441e-10
-8.19257e-10
1.86043e-10
-8.62205e-10
2.12184e-10
-9.02511e-10
2.39865e-10
-9.4023e-10
2.69098e-10
-9.75425e-10
2.99905e-10
-1.00817e-09
3.32316e-10
-1.03855e-09
3.66367e-10
-1.06668e-09
4.02094e-10
-1.09268e-09
4.3953e-10
-1.1167e-09
4.78694e-10
-1.13893e-09
5.19584e-10
-1.15958e-09
-1.17889e-09
5.62167e-10
2.3408e-13
-6.09739e-11
2.66423e-12
-1.51841e-10
7.22192e-12
-2.32678e-10
1.38264e-11
-3.09109e-10
2.24184e-11
-3.81557e-10
3.29297e-11
-4.5023e-10
4.52858e-11
-5.15363e-10
5.94115e-11
-5.77177e-10
7.52362e-11
-6.35851e-10
9.2696e-11
-6.91518e-10
1.11735e-10
-7.44273e-10
1.32305e-10
-7.94186e-10
1.54367e-10
-8.4132e-10
1.7789e-10
-8.85729e-10
2.02854e-10
-9.27475e-10
2.29243e-10
-9.66619e-10
2.57051e-10
-1.00323e-09
2.86278e-10
-1.0374e-09
3.16927e-10
-1.0692e-09
3.49001e-10
-1.09876e-09
3.82501e-10
-1.12618e-09
4.17418e-10
-1.15162e-09
4.53725e-10
-1.17524e-09
4.91372e-10
-1.19723e-09
-1.2178e-09
5.30276e-10
1.94564e-13
-6.11667e-11
2.47638e-12
-1.54121e-10
6.79161e-12
-2.36992e-10
1.30679e-11
-3.15384e-10
2.12508e-11
-3.89739e-10
3.12764e-11
-4.60256e-10
4.3073e-11
-5.2716e-10
5.65675e-11
-5.90673e-10
7.16897e-11
-6.50975e-10
8.83747e-11
-7.08205e-10
1.06564e-10
-7.62463e-10
1.26205e-10
-8.13829e-10
1.47253e-10
-8.62368e-10
1.69668e-10
-9.08145e-10
1.93416e-10
-9.51224e-10
2.18471e-10
-9.91675e-10
2.44808e-10
-1.02957e-09
2.72405e-10
-1.065e-09
3.01242e-10
-1.09804e-09
3.31293e-10
-1.12881e-09
3.62527e-10
-1.15741e-09
3.94899e-10
-1.18399e-09
4.28345e-10
-1.20868e-09
4.62775e-10
-1.23166e-09
-1.25308e-09
4.98062e-10
1.60217e-13
-6.13251e-11
2.299e-12
-1.56258e-10
6.37855e-12
-2.4107e-10
1.23334e-11
-3.21338e-10
2.01135e-11
-3.97519e-10
2.96581e-11
-4.698e-10
4.08981e-11
-5.38401e-10
5.37618e-11
-6.03537e-10
6.81792e-11
-6.65393e-10
8.40839e-11
-7.24111e-10
1.01414e-10
-7.79795e-10
1.20113e-10
-8.32529e-10
1.40129e-10
-8.82385e-10
1.61414e-10
-9.29431e-10
1.83924e-10
-9.73735e-10
2.07618e-10
-1.01537e-09
2.32455e-10
-1.05441e-09
2.58395e-10
-1.09094e-09
2.85395e-10
-1.12504e-09
3.13407e-10
-1.15682e-09
3.4237e-10
-1.18638e-09
3.72211e-10
-1.21383e-09
4.02834e-10
-1.23931e-09
4.34116e-10
-1.26294e-09
-1.28487e-09
4.659e-10
1.29986e-13
-6.14532e-11
2.13124e-12