/*--------------------------------*- C++ -*----------------------------------*\
  =========                 |
  \\      /  F ield         | OpenFOAM: The Open Source CFD Toolbox
   \\    /   O peration     | Website:  https://openfoam.org
    \\  /    A nd           | Version:  13
     \\/     M anipulation  |
\*---------------------------------------------------------------------------*/
FoamFile
{
    format      ascii;
    class       volVectorField;
    location    "30";
    object      U;
}
// * * * * * * * * * * * * * * * * * * * * * * * * * * * * * * * * * * * * * //

dimensions      [0 1 -1 0 0 0 0];

internalField   nonuniform List<vector> 
6440
(
(7.80242e-07 -1.48517e-06 0)
(2.01737e-06 -2.06325e-06 0)
(3.61496e-06 -1.87009e-06 4.13955e-21)
(4.73495e-06 -1.9498e-06 -4.12688e-21)
(5.77152e-06 -2.28579e-06 0)
(6.58119e-06 -2.69331e-06 8.30728e-21)
(7.12695e-06 -3.10485e-06 -8.2573e-21)
(7.39371e-06 -3.47766e-06 0)
(7.34253e-06 -3.76522e-06 -1.65154e-20)
(6.94045e-06 -3.91864e-06 1.637e-20)
(6.18031e-06 -3.89651e-06 1.62532e-20)
(5.07939e-06 -3.66576e-06 -3.80094e-23)
(3.68885e-06 -3.20947e-06 -8.28123e-23)
(2.08409e-06 -2.5271e-06 -1.55867e-20)
(3.33935e-07 -1.6171e-06 -1.50882e-20)
(-1.45563e-06 -5.04397e-07 1.48817e-20)
(-3.16074e-06 7.08514e-07 0)
(-4.71365e-06 1.93919e-06 -2.75088e-20)
(-6.01244e-06 3.1353e-06 5.38816e-22)
(-7.019e-06 4.23476e-06 2.61059e-20)
(-7.72108e-06 5.11018e-06 -2.4574e-20)
(-7.97538e-06 5.36827e-06 4.77529e-20)
(-8.81532e-06 4.85117e-06 -2.31839e-20)
(-7.74865e-06 1.28887e-06 2.17803e-20)
(-2.30679e-06 -3.10613e-06 -1.5925e-22)
(6.8026e-07 -3.97033e-06 0)
(1.70188e-06 -5.41159e-06 0)
(3.00777e-06 -4.8003e-06 4.36068e-21)
(4.01979e-06 -4.70889e-06 -4.3475e-21)
(5.02944e-06 -5.08871e-06 0)
(5.91832e-06 -5.58379e-06 8.76638e-21)
(6.67336e-06 -6.07058e-06 -8.71425e-21)
(7.27452e-06 -6.51024e-06 0)
(7.6789e-06 -6.8631e-06 0)
(7.84307e-06 -7.08278e-06 0)
(7.73106e-06 -7.12446e-06 0)
(7.32624e-06 -6.94914e-06 1.71197e-20)
(6.63917e-06 -6.5267e-06 -1.6927e-20)
(5.7185e-06 -5.85136e-06 0)
(4.59175e-06 -4.93078e-06 -1.61937e-20)
(3.19964e-06 -3.75276e-06 1.59745e-20)
(1.57741e-06 -2.39702e-06 0)
(-3.1873e-08 -1.01676e-06 0)
(-1.44321e-06 3.39768e-07 -2.82268e-20)
(-2.63731e-06 1.60648e-06 2.77716e-20)
(-3.57041e-06 2.61458e-06 -2.56702e-20)
(-4.08632e-06 2.82945e-06 2.5228e-20)
(-5.96783e-06 2.11336e-06 2.30576e-20)
(-7.69702e-06 -1.94406e-06 -8.02884e-22)
(-1.28064e-06 -8.84499e-06 -1.60267e-20)
(6.12298e-07 -6.05579e-06 0)
(1.74083e-06 -8.02074e-06 0)
(2.97927e-06 -7.13817e-06 4.34824e-21)
(4.02516e-06 -6.98712e-06 -4.33586e-21)
(5.11978e-06 -7.38599e-06 0)
(6.16143e-06 -7.8979e-06 8.78236e-21)
(7.08768e-06 -8.37293e-06 -1.75428e-20)
(7.84047e-06 -8.7692e-06 8.75245e-21)
(8.40122e-06 -9.05863e-06 -1.76716e-20)
(8.72191e-06 -9.19581e-06 1.7526e-20)
(8.7533e-06 -9.12658e-06 1.75758e-20)
(8.46971e-06 -8.8019e-06 4.30258e-23)
(7.86486e-06 -8.18042e-06 -1.72592e-20)
(6.91234e-06 -7.22937e-06 -1.69721e-20)
(5.55783e-06 -5.93513e-06 1.4965e-22)
(3.73589e-06 -4.28165e-06 1.64031e-20)
(1.54108e-06 -2.33115e-06 0)
(-6.34561e-07 -3.37842e-07 -3.00884e-20)
(-2.57569e-06 1.61954e-06 2.96444e-20)
(-4.31084e-06 3.47353e-06 0)
(-5.68629e-06 5.0017e-06 -2.57261e-20)
(-6.32291e-06 5.58111e-06 4.94445e-20)
(-7.8033e-06 5.13485e-06 -2.37325e-20)
(-9.29139e-06 1.66203e-06 2.11561e-20)
(-7.78724e-07 -7.34964e-06 -1.57185e-20)
(6.25753e-07 -8.12762e-06 0)
(1.8892e-06 -1.02784e-05 0)
(3.07878e-06 -9.16149e-06 4.30166e-21)
(4.11916e-06 -9.00027e-06 -4.29012e-21)
(5.21233e-06 -9.42201e-06 0)
(6.28002e-06 -9.95989e-06 8.73882e-21)
(7.26364e-06 -1.04883e-05 -1.74812e-20)
(8.06456e-06 -1.09094e-05 8.73473e-21)
(8.66349e-06 -1.12244e-05 0)
(9.02903e-06 -1.13961e-05 0)
(9.10981e-06 -1.1362e-05 0)
(8.86124e-06 -1.10528e-05 1.7667e-20)
(8.23844e-06 -1.04062e-05 -1.74888e-20)
(7.17695e-06 -9.36473e-06 -1.72741e-20)
(5.62202e-06 -7.88264e-06 1.70754e-20)
(3.50602e-06 -5.90048e-06 0)
(8.26185e-07 -3.3978e-06 -3.19166e-20)
(-1.91854e-06 -7.23717e-07 3.14881e-20)
(-4.40238e-06 1.87941e-06 0)
(-6.64601e-06 4.36102e-06 0)
(-8.4156e-06 6.47597e-06 0)
(-9.18986e-06 7.55107e-06 0)
(-1.0127e-05 7.49541e-06 0)
(-1.13716e-05 4.98267e-06 2.05656e-20)
(-8.21738e-07 -5.86318e-06 -4.28665e-22)
(6.49028e-07 -1.03164e-05 0)
(2.01102e-06 -1.23446e-05 0)
(3.1095e-06 -1.09801e-05 4.21898e-21)
(4.07514e-06 -1.08303e-05 -4.20831e-21)
(5.06532e-06 -1.1279e-05 0)
(6.00713e-06 -1.18291e-05 8.62496e-21)
(6.94887e-06 -1.2409e-05 -1.72795e-20)
(7.75128e-06 -1.29286e-05 8.64723e-21)
(8.30646e-06 -1.33046e-05 0)
(8.64431e-06 -1.35554e-05 0)
(8.73027e-06 -1.36197e-05 0)
(8.50792e-06 -1.34059e-05 1.77587e-20)
(7.90988e-06 -1.28242e-05 -1.75892e-20)
(6.85458e-06 -1.17836e-05 -1.74602e-20)
(5.278e-06 -1.02085e-05 1.727e-20)
(3.11657e-06 -8.03622e-06 0)
(2.68494e-07 -5.16812e-06 -3.23965e-20)
(-2.90332e-06 -1.83768e-06 3.19837e-20)
(-5.91423e-06 1.41096e-06 0)
(-8.61952e-06 4.51186e-06 0)
(-1.08176e-05 7.2213e-06 0)
(-1.18201e-05 8.78e-06 0)
(-1.23963e-05 9.05702e-06 0)
(-1.36356e-05 7.51285e-06 2.00559e-20)
(-1.08485e-06 -4.68688e-06 -1.52568e-20)
(6.60231e-07 -1.25707e-05 0)
(2.08872e-06 -1.42109e-05 0)
(3.06726e-06 -1.25699e-05 4.10072e-21)
(3.91989e-06 -1.24136e-05 -4.09092e-21)
(4.7616e-06 -1.28615e-05 0)
(5.52115e-06 -1.33964e-05 8.4402e-21)
(6.25064e-06 -1.39587e-05 -1.69357e-20)
(6.96375e-06 -1.45601e-05 8.48864e-21)
(7.48718e-06 -1.50704e-05 -1.7436e-20)
(7.73791e-06 -1.54492e-05 1.7315e-20)
(7.78954e-06 -1.56661e-05 0)
(7.6003e-06 -1.56206e-05 1.77164e-20)
(7.0896e-06 -1.5196e-05 1.15707e-22)
(6.1624e-06 -1.42736e-05 -3.50312e-20)
(4.72291e-06 -1.27437e-05 1.73495e-20)
(2.71451e-06 -1.05431e-05 0)
(1.70495e-08 -7.5752e-06 -3.27533e-20)
(-3.39605e-06 -3.80889e-06 9.27668e-22)
(-6.90651e-06 1.06985e-07 1.20282e-21)
(-1.00379e-05 3.78016e-06 2.94374e-20)
(-1.27366e-05 7.07397e-06 0)
(-1.41724e-05 9.19052e-06 0)
(-1.4657e-05 9.8172e-06 0)
(-1.60108e-05 9.2347e-06 1.96229e-20)
(-1.48006e-06 -3.85463e-06 -1.50974e-20)
(6.61912e-07 -1.48263e-05 0)
(2.14135e-06 -1.5861e-05 0)
(2.99974e-06 -1.39204e-05 3.94911e-21)
(3.73643e-06 -1.37245e-05 -3.94021e-21)
(4.41598e-06 -1.41323e-05 -8.07748e-21)
(4.98517e-06 -1.4629e-05 1.62354e-20)
(5.49375e-06 -1.51666e-05 -1.64576e-20)
(5.98407e-06 -1.57863e-05 8.26305e-21)
(6.36374e-06 -1.6456e-05 0)
(6.53488e-06 -1.69746e-05 -1.72841e-20)
(6.54503e-06 -1.73737e-05 1.71591e-20)
(6.39404e-06 -1.75654e-05 1.75439e-20)
(6.01117e-06 -1.74037e-05 -1.7394e-20)
(5.29703e-06 -1.67451e-05 -1.74864e-20)
(4.12865e-06 -1.54468e-05 1.73154e-20)
(2.4015e-06 -1.34019e-05 0)
(-2.30643e-09 -1.05426e-05 -3.29792e-20)
(-3.30378e-06 -6.71336e-06 3.26009e-20)
(-7.16264e-06 -2.22959e-06 0)
(-1.08898e-05 2.06709e-06 -2.82343e-20)
(-1.42037e-05 5.97549e-06 2.7868e-20)
(-1.6252e-05 8.75975e-06 0)
(-1.6827e-05 9.79801e-06 0)
(-1.83073e-05 1.01806e-05 1.92448e-20)
(-1.8996e-06 -3.42634e-06 -6.56197e-22)
(6.60511e-07 -1.70434e-05 0)
(2.18915e-06 -1.73139e-05 0)
(2.95376e-06 -1.50661e-05 3.76712e-21)
(3.59993e-06 -1.47974e-05 -3.75911e-21)
(4.13858e-06 -1.51248e-05 0)
(4.52859e-06 -1.55439e-05 7.87381e-21)
(4.80597e-06 -1.60241e-05 -7.84067e-21)
(5.02289e-06 -1.66089e-05 0)
(5.30649e-06 -1.73468e-05 0)
(5.45501e-06 -1.80662e-05 0)
(5.35684e-06 -1.86919e-05 0)
(5.19657e-06 -1.91765e-05 1.72479e-20)
(4.94225e-06 -1.93738e-05 -1.71086e-20)
(4.48006e-06 -1.91145e-05 0)
(3.67e-06 -1.82265e-05 0)
(2.33901e-06 -1.65431e-05 0)
(3.39491e-07 -1.39613e-05 0)
(-2.58797e-06 -1.03367e-05 0)
(-6.62412e-06 -5.56351e-06 -3.03545e-20)
(-1.10085e-05 -5.295e-07 2.99941e-20)
(-1.49844e-05 4.11775e-06 0)
(-1.7786e-05 7.73405e-06 0)
(-1.85448e-05 9.30662e-06 0)
(-2.02266e-05 1.05677e-05 1.89036e-20)
(-2.24036e-06 -3.29701e-06 -1.4861e-20)
(6.61146e-07 -1.92031e-05 0)
(2.24993e-06 -1.86211e-05 0)
(2.97394e-06 -1.6085e-05 3.55801e-21)
(3.59096e-06 -1.57294e-05 -3.55085e-21)
(4.06191e-06 -1.59589e-05 0)
(4.35596e-06 -1.6287e-05 7.50301e-21)
(4.51656e-06 -1.67039e-05 -1.51383e-20)
(4.58344e-06 -1.72493e-05 7.62978e-21)
(4.64007e-06 -1.79747e-05 0)
(4.60004e-06 -1.88748e-05 0)
(4.43116e-06 -1.97151e-05 -1.66049e-20)
(4.27808e-06 -2.0491e-05 3.33237e-20)
(4.14646e-06 -2.10798e-05 -1.67074e-20)
(3.94709e-06 -2.12974e-05 -1.70629e-20)
(3.53751e-06 -2.09464e-05 1.6913e-20)
(2.70936e-06 -1.98106e-05 0)
(1.21443e-06 -1.76856e-05 3.29871e-20)
(-1.23434e-06 -1.4415e-05 -3.26461e-20)
(-5.07372e-06 -9.7238e-06 0)
(-9.89276e-06 -4.00384e-06 0)
(-1.46857e-05 1.51119e-06 0)
(-1.84029e-05 6.10449e-06 -2.38154e-20)
(-1.97235e-05 8.46698e-06 2.35165e-20)
(-2.19686e-05 1.06407e-05 1.86031e-20)
(-2.57369e-06 -3.32845e-06 -1.47745e-20)
(6.63718e-07 -2.12957e-05 0)
(2.32735e-06 -1.98508e-05 0)
(3.07812e-06 -1.70799e-05 0)
(3.74855e-06 -1.66567e-05 0)
(4.25134e-06 -1.68074e-05 0)
(4.55755e-06 -1.70672e-05 0)
(4.69854e-06 -1.74403e-05 0)
(4.69078e-06 -1.79725e-05 0)
(4.58317e-06 -1.86964e-05 1.5298e-20)
(4.46777e-06 -1.96387e-05 -1.52133e-20)
(4.28423e-06 -2.06206e-05 0)
(4.07092e-06 -2.16066e-05 0)
(3.99012e-06 -2.25275e-05 0)
(4.00365e-06 -2.32101e-05 0)
(3.97796e-06 -2.34388e-05 0)
(3.69029e-06 -2.29592e-05 0)
(2.81475e-06 -2.14799e-05 0)
(9.72637e-07 -1.8729e-05 3.18599e-20)
(-2.34049e-06 -1.44e-05 -3.15323e-20)
(-7.41325e-06 -8.32714e-06 0)
(-1.31289e-05 -1.93974e-06 2.65374e-20)
(-1.79383e-05 3.70252e-06 -2.62308e-20)
(-2.0291e-05 7.04927e-06 0)
(-2.34787e-05 1.02474e-05 0)
(-2.90994e-06 -3.49056e-06 0)
(6.64676e-07 -2.33094e-05 0)
(2.41635e-06 -2.10684e-05 0)
(3.26763e-06 -1.81539e-05 0)
(4.09031e-06 -1.77205e-05 0)
(4.75566e-06 -1.78542e-05 0)
(5.23152e-06 -1.81098e-05 0)
(5.5271e-06 -1.84902e-05 -6.81352e-21)
(5.63839e-06 -1.90282e-05 6.78542e-21)
(5.5806e-06 -1.97199e-05 1.44931e-20)
(5.42716e-06 -2.05733e-05 -1.44172e-20)
(5.17e-06 -2.1609e-05 -1.53285e-20)
(4.90016e-06 -2.26876e-05 1.52316e-20)
(4.82802e-06 -2.37809e-05 0)
(4.98832e-06 -2.47908e-05 -1.62063e-20)
(5.29005e-06 -2.55234e-05 -2.45342e-22)
(5.52376e-06 -2.56988e-05 1.61864e-20)
(5.33131e-06 -2.49633e-05 0)
(4.22158e-06 -2.29194e-05 3.1617e-20)
(1.54062e-06 -1.91394e-05 -3.13077e-20)
(-3.55858e-06 -1.31068e-05 0)
(-1.00652e-05 -5.71092e-06 0)
(-1.61673e-05 1.04723e-06 -2.39605e-20)
(-2.0026e-05 5.67838e-06 2.36882e-20)
(-2.43784e-05 1.01647e-05 0)
(-2.91077e-06 -3.43339e-06 0)
(6.57978e-07 -2.52254e-05 0)
(2.50601e-06 -2.23312e-05 0)
(3.53234e-06 -1.9405e-05 0)
(4.61397e-06 -1.90615e-05 0)
(5.58863e-06 -1.92871e-05 0)
(6.42224e-06 -1.96572e-05 0)
(7.09876e-06 -2.01626e-05 0)
(7.58398e-06 -2.08061e-05 0)
(7.83202e-06 -2.15422e-05 0)
(7.77067e-06 -2.23331e-05 0)
(7.51112e-06 -2.32691e-05 1.45345e-20)
(7.27588e-06 -2.42017e-05 -1.44474e-20)
(7.20145e-06 -2.51666e-05 0)
(7.40055e-06 -2.61594e-05 0)
(7.9073e-06 -2.70834e-05 0)
(8.57837e-06 -2.77009e-05 0)
(9.04205e-06 -2.76324e-05 0)
(8.71539e-06 -2.63722e-05 0)
(6.80297e-06 -2.33168e-05 0)
(2.35183e-06 -1.77676e-05 0)
(-4.73284e-06 -9.60723e-06 0)
(-1.24899e-05 -1.38305e-06 2.4064e-20)
(-1.78373e-05 4.59367e-06 -2.38036e-20)
(-2.39406e-05 1.07166e-05 0)
(-2.55809e-06 -2.76481e-06 0)
(6.35869e-07 -2.70166e-05 0)
(2.58195e-06 -2.36858e-05 0)
(3.85406e-06 -2.09215e-05 0)
(5.3033e-06 -2.08107e-05 0)
(6.73965e-06 -2.12823e-05 -5.34628e-21)
(8.12634e-06 -2.19343e-05 5.33204e-21)
(9.42259e-06 -2.27437e-05 0)
(1.05504e-05 -2.36669e-05 0)
(1.13775e-05 -2.46125e-05 1.25801e-20)
(1.17182e-05 -2.55016e-05 -2.56319e-20)
(1.17849e-05 -2.62305e-05 -5.86495e-22)
(1.1791e-05 -2.67893e-05 1.3552e-20)
(1.17783e-05 -2.73356e-05 0)
(1.19822e-05 -2.78214e-05 0)
(1.25592e-05 -2.82978e-05 -1.5209e-20)
(1.34757e-05 -2.87538e-05 1.50938e-20)
(1.44401e-05 -2.89559e-05 3.08557e-20)
(1.48795e-05 -2.83725e-05 8.97161e-24)
(1.39336e-05 -2.62188e-05 -3.03319e-20)
(1.04021e-05 -2.14446e-05 -2.86988e-20)
(3.24569e-06 -1.33636e-05 2.8422e-20)
(-5.85655e-06 -3.79265e-06 -2.42032e-20)
(-1.31051e-05 3.6041e-06 2.39535e-20)
(-2.19338e-05 1.14025e-05 0)
(-1.75621e-06 -1.59939e-06 0)
(5.92263e-07 -2.8651e-05 0)
(2.63421e-06 -2.51735e-05 0)
(4.21709e-06 -2.27877e-05 0)
(6.13587e-06 -2.30936e-05 0)
(8.1788e-06 -2.40048e-05 0)
(1.03014e-05 -2.51361e-05 0)
(1.24457e-05 -2.64598e-05 0)
(1.44799e-05 -2.78996e-05 0)
(1.61558e-05 -2.92905e-05 1.14629e-20)
(1.73997e-05 -3.05768e-05 -1.14119e-20)
(1.83395e-05 -3.14111e-05 0)
(1.88412e-05 -3.16593e-05 0)
(1.91697e-05 -3.13927e-05 0)
(1.97e-05 -3.07557e-05 0)
(2.03893e-05 -2.99412e-05 0)
(2.12745e-05 -2.91945e-05 0)
(2.23331e-05 -2.86357e-05 0)
(2.32468e-05 -2.79574e-05 2.98151e-20)
(2.3266e-05 -2.64696e-05 -2.95628e-20)
(2.08887e-05 -2.28984e-05 0)
(1.43852e-05 -1.5781e-05 0)
(4.31773e-06 -5.56823e-06 0)
(-5.4076e-06 3.39322e-06 0)
(-1.77055e-05 1.28365e-05 0)
(-2.2219e-08 4.32245e-07 0)
(5.22942e-07 -3.00956e-05 0)
(2.65351e-06 -2.68274e-05 0)
(4.60304e-06 -2.50717e-05 0)
(7.08353e-06 -2.60109e-05 0)
(9.87571e-06 -2.75839e-05 0)
(1.29088e-05 -2.94149e-05 0)
(1.60766e-05 -3.14767e-05 0)
(1.92231e-05 -3.37771e-05 0)
(2.19904e-05 -3.60846e-05 0)
(2.44158e-05 -3.8018e-05 0)
(2.67285e-05 -3.9166e-05 -1.14183e-20)
(2.87127e-05 -3.93099e-05 1.136e-20)
(3.03545e-05 -3.82111e-05 0)
(3.17033e-05 -3.61896e-05 0)
(3.27256e-05 -3.3421e-05 -1.362e-20)
(3.35503e-05 -3.04139e-05 1.35268e-20)
(3.44227e-05 -2.77068e-05 2.85625e-20)
(3.53206e-05 -2.53962e-05 -2.83445e-20)
(3.56542e-05 -2.33385e-05 0)
(3.41932e-05 -2.04997e-05 0)
(2.89882e-05 -1.49172e-05 0)
(1.89538e-05 -5.49018e-06 -2.46215e-20)
(6.72543e-06 4.64391e-06 4.59955e-20)
(-1.03772e-05 1.63929e-05 -2.13962e-20)
(2.76783e-06 4.70477e-06 0)
(4.2703e-07 -3.13169e-05 0)
(2.6389e-06 -2.8653e-05 0)
(5.00354e-06 -2.77762e-05 0)
(8.12127e-06 -2.95457e-05 0)
(1.17869e-05 -3.19855e-05 0)
(1.58758e-05 -3.48529e-05 0)
(2.00991e-05 -3.8027e-05 3.94246e-21)
(2.42778e-05 -4.14529e-05 -3.93002e-21)
(2.84672e-05 -4.49207e-05 8.89784e-21)
(3.28964e-05 -4.76456e-05 -8.86202e-21)
(3.74013e-05 -4.93173e-05 1.00787e-20)
(4.15819e-05 -4.9652e-05 -1.00295e-20)
(4.51978e-05 -4.83461e-05 0)
(4.81941e-05 -4.54315e-05 1.19768e-20)
(5.0422e-05 -4.09424e-05 -1.19034e-20)
(5.17288e-05 -3.50929e-05 0)
(5.2617e-05 -2.86568e-05 0)
(5.31617e-05 -2.25262e-05 2.75796e-20)
(5.31513e-05 -1.7609e-05 4.5703e-22)
(5.21126e-05 -1.3549e-05 -2.76046e-20)
(4.81576e-05 -8.71027e-06 0)
(3.89555e-05 -1.12066e-06 2.4948e-20)
(2.49972e-05 8.70369e-06 -2.47223e-20)
(1.93932e-06 2.30862e-05 0)
(7.51282e-06 1.27944e-05 1.46888e-20)
(3.14277e-07 -3.22662e-05 0)
(2.62924e-06 -3.05801e-05 0)
(5.48212e-06 -3.0871e-05 0)
(9.30226e-06 -3.37809e-05 0)
(1.37816e-05 -3.74094e-05 0)
(1.88154e-05 -4.15174e-05 0)
(2.42128e-05 -4.6083e-05 0)
(2.97731e-05 -5.08471e-05 0)
(3.59482e-05 -5.52148e-05 0)
(4.27909e-05 -5.87954e-05 0)
(4.97377e-05 -6.13341e-05 0)
(5.65201e-05 -6.24047e-05 0)
(6.2914e-05 -6.16514e-05 0)
(6.86704e-05 -5.87508e-05 0)
(7.35549e-05 -5.35785e-05 0)
(7.72734e-05 -4.59055e-05 0)
(7.95667e-05 -3.58287e-05 0)
(8.00313e-05 -2.41546e-05 0)
(7.92902e-05 -1.24474e-05 0)
(7.79286e-05 -3.06501e-06 0)
(7.43511e-05 4.43088e-06 0)
(6.61329e-05 1.12647e-05 0)
(5.1487e-05 1.88861e-05 0)
(2.1508e-05 3.4905e-05 0)
(1.53638e-05 2.73162e-05 0)
(2.31948e-07 -3.29442e-05 -4.58105e-22)
(2.64611e-06 -3.26898e-05 -5.27496e-22)
(5.89088e-06 -3.45298e-05 1.03711e-21)
(1.03309e-05 -3.8824e-05 -2.21586e-21)
(1.57528e-05 -4.38626e-05 2.21221e-21)
(2.18689e-05 -4.93761e-05 0)
(2.84829e-05 -5.53669e-05 -2.61063e-21)
(3.59989e-05 -6.12541e-05 -2.97361e-21)
(4.4579e-05 -6.65215e-05 1.15414e-20)
(5.37779e-05 -7.10654e-05 -5.96102e-21)
(6.33573e-05 -7.45264e-05 -6.95071e-21)
(7.31471e-05 -7.64582e-05 6.91961e-21)
(8.28569e-05 -7.64376e-05 8.13317e-21)
(9.22204e-05 -7.41916e-05 -1.68948e-20)
(0.000101019 -6.93045e-05 -7.65736e-22)
(0.00010891 -6.13525e-05 -1.10726e-20)
(0.000115262 -5.00316e-05 2.04095e-20)
(0.000119214 -3.4975e-05 2.35006e-20)
(0.000119768 -1.62286e-05 -4.81146e-20)
(0.000117708 3.11097e-06 2.45974e-20)
(0.000113249 1.92264e-05 0)
(0.000104195 3.132e-05 -2.6036e-20)
(8.79608e-05 3.92326e-05 5.05818e-20)
(5.06213e-05 5.83928e-05 -2.45449e-20)
(2.95133e-05 5.63207e-05 -1.81235e-20)
(1.24188e-07 -3.34646e-05 0)
(2.55763e-06 -3.51949e-05 0)
(6.24562e-06 -3.88374e-05 0)
(1.14616e-05 -4.46547e-05 0)
(1.78035e-05 -5.11831e-05 0)
(2.49959e-05 -5.81143e-05 0)
(3.33532e-05 -6.50065e-05 0)
(4.3156e-05 -7.14811e-05 0)
(5.40667e-05 -7.75339e-05 0)
(6.5832e-05 -8.28908e-05 0)
(7.83502e-05 -8.72207e-05 0)
(9.14744e-05 -9.02007e-05 0)
(0.000104843 -9.13799e-05 0)
(0.000118313 -9.00903e-05 0)
(0.000131876 -8.59778e-05 0)
(0.000145045 -7.87663e-05 0)
(0.000157366 -6.83579e-05 0)
(0.000167975 -5.39803e-05 0)
(0.000175088 -3.46804e-05 2.18389e-20)
(0.000176744 -8.82387e-06 -2.16888e-20)
(0.000172883 2.07236e-05 0)
(0.000162642 4.72294e-05 0)
(0.000145221 6.84009e-05 0)
(0.000100934 0.000109768 0)
(5.88717e-05 0.000139556 0)
(5.53955e-09 -3.40306e-05 0)
(2.49419e-06 -3.82003e-05 0)
(6.72188e-06 -4.37995e-05 0)
(1.26847e-05 -5.12394e-05 0)
(2.00604e-05 -5.90231e-05 0)
(2.90539e-05 -6.67911e-05 0)
(3.96847e-05 -7.41497e-05 0)
(5.16327e-05 -8.1072e-05 0)
(6.47498e-05 -8.74078e-05 0)
(7.89789e-05 -9.28604e-05 0)
(9.42245e-05 -9.71392e-05 3.63364e-21)
(0.000110444 -0.000100012 -3.61869e-21)
(0.000127815 -0.000101307 0)
(0.000146249 -0.000100554 0)
(0.000165171 -9.73531e-05 0)
(0.00018399 -9.11016e-05 0)
(0.00020262 -8.09183e-05 0)
(0.000220684 -6.64778e-05 0)
(0.000237973 -4.758e-05 0)
(0.000253406 -2.31312e-05 0)
(0.000261621 9.50628e-06 0)
(0.000262812 4.48282e-05 2.63956e-20)
(0.000264534 7.0074e-05 -2.61911e-20)
(0.000238017 0.000112242 0)
(8.19479e-05 0.000308494 0)
(-5.22621e-08 -3.484e-05 0)
(2.57077e-06 -4.15678e-05 0)
(7.38254e-06 -4.90225e-05 0)
(1.43486e-05 -5.78202e-05 0)
(2.32143e-05 -6.64811e-05 0)
(3.39137e-05 -7.47051e-05 0)
(4.63344e-05 -8.25221e-05 0)
(6.0311e-05 -8.97355e-05 0)
(7.57678e-05 -9.59973e-05 0)
(9.26524e-05 -0.000100988 0)
(0.000110917 -0.000104395 0)
(0.00013055 -0.000105922 0)
(0.000151628 -0.000105331 0)
(0.000174168 -0.000102598 0)
(0.00019828 -9.7468e-05 0)
(0.000224559 -8.93439e-05 0)
(0.00025293 -7.728e-05 0)
(0.000282532 -6.06679e-05 0)
(0.000313489 -3.76459e-05 0)
(0.000346439 -7.92529e-06 0)
(0.000382323 2.84493e-05 0)
(0.00042598 7.31803e-05 0)
(0.000490151 0.000118862 0)
(0.000616502 0.000159999 0)
(0.000961919 0.000381435 0)
(-3.20945e-08 -3.59218e-05 0)
(2.86183e-06 -4.5448e-05 0)
(8.26085e-06 -5.50009e-05 0)
(1.60925e-05 -6.55384e-05 0)
(2.60628e-05 -7.58093e-05 0)
(3.80369e-05 -8.56015e-05 0)
(5.1894e-05 -9.48357e-05 0)
(6.75287e-05 -0.000103283 0)
(8.48776e-05 -0.000110648 0)
(0.000103907 -0.000116629 0)
(0.000124606 -0.000120937 0)
(0.000147001 -0.000123298 0)
(0.000171161 -0.000123473 0)
(0.000197182 -0.000121309 0)
(0.000225251 -0.000116594 0)
(0.000255734 -0.000109232 0)
(0.000288959 -9.94526e-05 0)
(0.000326031 -8.67927e-05 0)
(0.000367397 -7.00013e-05 0)
(0.000412708 -4.84454e-05 0)
(0.000464711 -2.19608e-05 0)
(0.000529101 7.46538e-06 0)
(0.000611912 3.09729e-05 0)
(0.000712711 2.85565e-05 0)
(0.000773417 -3.74044e-05 0)
(-2.06572e-08 -3.71967e-05 0)
(3.14436e-06 -4.99034e-05 0)
(9.06651e-06 -6.19831e-05 0)
(1.76561e-05 -7.47891e-05 0)
(2.85787e-05 -8.71738e-05 0)
(4.16858e-05 -9.89592e-05 0)
(5.68563e-05 -0.000110048 0)
(7.3998e-05 -0.000120243 0)
(9.30581e-05 -0.00012929 0)
(0.000114016 -0.000136919 0)
(0.000136887 -0.000142872 0)
(0.000161722 -0.000146911 0)
(0.000188615 -0.000148836 0)
(0.000217707 -0.000148484 0)
(0.000249209 -0.000145715 0)
(0.000283433 -0.000140447 0)
(0.000320807 -0.000132696 0)
(0.000362078 -0.000122348 0)
(0.000407859 -0.000109942 0)
(0.000458835 -9.51509e-05 0)
(0.000516413 -7.75794e-05 0)
(0.000582224 -5.96657e-05 0)
(0.000655074 -4.81045e-05 0)
(0.000723283 -5.45802e-05 0)
(0.00074737 -8.5827e-05 0)
(-1.07821e-08 -3.86137e-05 0)
(3.38327e-06 -5.47581e-05 0)
(9.74503e-06 -6.96093e-05 0)
(1.89769e-05 -8.49204e-05 0)
(3.07177e-05 -9.96339e-05 0)
(4.48028e-05 -0.000113602 0)
(6.11085e-05 -0.000126754 0)
(7.95466e-05 -0.000138934 0)
(0.000100066 -0.000149925 0)
(0.000122655 -0.000159496 0)
(0.000147335 -0.000167424 0)
(0.000174164 -0.000173512 0)
(0.000203239 -0.000177603 0)
(0.000234697 -0.000179582 0)
(0.000268724 -0.000179379 0)
(0.000305561 -0.000176973 0)
(0.000345512 -0.000172399 0)
(0.000388948 -0.000165737 0)
(0.000436205 -0.00015726 0)
(0.000487574 -0.000146971 0)
(0.00054314 -0.000135026 0)
(0.000602067 -0.000122177 0)
(0.00066036 -0.000110282 0)
(0.00070691 -9.99589e-05 0)
(0.000721372 -8.23488e-05 0)
(-7.37261e-09 -4.01314e-05 0)
(3.55992e-06 -5.99152e-05 0)
(1.02666e-05 -7.77351e-05 0)
(2.00129e-05 -9.57311e-05 0)
(3.24138e-05 -0.000112945 0)
(4.72938e-05 -0.000129267 0)
(6.45231e-05 -0.00014466 0)
(8.40097e-05 -0.00015901 0)
(0.000105702 -0.000172141 0)
(0.000129584 -0.000183856 0)
(0.000155671 -0.000193966 0)
(0.000184011 -0.00020231 0)
(0.000214677 -0.000208764 0)
(0.000247767 -0.000213247 0)
(0.000283404 -0.000215727 0)
(0.000321714 -0.000216213 0)
(0.000362818 -0.000214752 0)
(0.000406787 -0.000211402 0)
(0.000453563 -0.000206199 0)
(0.000502838 -0.000199004 0)
(0.000553817 -0.000189456 0)
(0.000604628 -0.000176787 0)
(0.000651347 -0.000159405 0)
(0.000686975 -0.000132654 0)
(0.000702804 -8.46142e-05 0)
(-1.08123e-08 -4.17181e-05 0)
(3.67159e-06 -6.5294e-05 0)
(1.06296e-05 -8.62363e-05 0)
(2.07589e-05 -0.000107055 0)
(3.36593e-05 -0.000126895 0)
(4.91446e-05 -0.000145689 0)
(6.70786e-05 -0.000163438 0)
(8.73643e-05 -0.000180069 0)
(0.000109941 -0.000195442 0)
(0.000134782 -0.000209395 0)
(0.000161889 -0.000221767 0)
(0.000191282 -0.000232418 0)
(0.000223001 -0.000241245 0)
(0.000257088 -0.000248179 0)
(0.000293585 -0.000253185 0)
(0.000332502 -0.000256255 0)
(0.000373792 -0.000257376 0)
(0.000417298 -0.000256489 0)
(0.000462669 -0.0002534 0)
(0.000509256 -0.000247629 0)
(0.000555942 -0.000238196 0)
(0.000600871 -0.000223267 0)
(0.000641265 -0.000199499 0)
(0.000673711 -0.000160854 0)
(0.000695644 -9.72129e-05 0)
(-2.09863e-08 -4.33409e-05 0)
(3.72011e-06 -7.0818e-05 0)
(1.08358e-05 -9.50004e-05 0)
(2.12206e-05 -0.000118748 0)
(3.44621e-05 -0.000141312 0)
(5.0368e-05 -0.000162667 0)
(6.87958e-05 -0.000182857 0)
(8.9639e-05 -0.000201842 0)
(0.000112827 -0.000219521 0)
(0.000138316 -0.000235757 0)
(0.000166087 -0.000250413 0)
(0.00019613 -0.000263362 0)
(0.000228445 -0.000274505 0)
(0.000263021 -0.000283764 0)
(0.000299824 -0.000291079 0)
(0.000338772 -0.000296384 0)
(0.000379701 -0.000299574 0)
(0.000422317 -0.000300438 0)
(0.000466145 -0.000298554 0)
(0.000510458 -0.000293125 0)
(0.000554225 -0.000282751 0)
(0.000596088 -0.000265097 0)
(0.000634537 -0.000236437 0)
(0.000668553 -0.000191191 0)
(0.000698635 -0.000121823 0)
(-3.71823e-08 -4.49679e-05 0)
(3.70911e-06 -7.64134e-05 0)
(1.08956e-05 -0.000103917 0)
(2.14139e-05 -0.00013067 0)
(3.48488e-05 -0.000156028 0)
(5.10028e-05 -0.000180009 0)
(6.97269e-05 -0.000202693 0)
(9.09065e-05 -0.000224079 0)
(0.000114456 -0.000244093 0)
(0.000140316 -0.000262624 0)
(0.000168442 -0.000279548 0)
(0.000198798 -0.000294745 0)
(0.000231346 -0.00030811 0)
(0.00026603 -0.000319544 0)
(0.000302764 -0.000328946 0)
(0.000341405 -0.000336185 0)
(0.000381729 -0.000341053 0)
(0.000423402 -0.000343201 0)
(0.00046595 -0.000342031 0)
(0.000508748 -0.000336549 0)
(0.000551045 -0.000325174 0)
(0.000592075 -0.000305517 0)
(0.000631334 -0.000274162 0)
(0.000669144 -0.000226623 0)
(0.000707418 -0.000157746 0)
(-5.84275e-08 -4.65704e-05 0)
(3.64594e-06 -8.20122e-05 0)
(1.08229e-05 -0.000112887 0)
(2.13657e-05 -0.000142693 0)
(3.48595e-05 -0.00017089 0)
(5.11056e-05 -0.000197537 0)
(6.99502e-05 -0.000222749 0)
(9.12681e-05 -0.000246556 0)
(0.000114962 -0.000268912 0)
(0.000140954 -0.000289724 0)
(0.000169181 -0.000308878 0)
(0.000199581 -0.000326256 0)
(0.000232087 -0.000341739 0)
(0.000266614 -0.000355206 0)
(0.000303045 -0.000366511 0)
(0.000341211 -0.00037546 0)
(0.00038088 -0.000381764 0)
(0.000421742 -0.000384973 0)
(0.000463404 -0.000384386 0)
(0.000505422 -0.000378938 0)
(0.00054737 -0.000367067 0)
(0.000588988 -0.000346592 0)
(0.000630454 -0.00031467 0)
(0.000672793 -0.000267941 0)
(0.000718355 -0.000203037 0)
(-8.35076e-08 -4.81234e-05 0)
(3.53783e-06 -8.75542e-05 0)
(1.06372e-05 -0.000121818 0)
(2.11078e-05 -0.000154701 0)
(3.4544e-05 -0.00018576 0)
(5.07468e-05 -0.000215095 0)
(6.95581e-05 -0.00024285 0)
(9.08461e-05 -0.000269083 0)
(0.0001145 -0.000293771 0)
(0.00014043 -0.000316835 0)
(0.000168553 -0.000338172 0)
(0.000198792 -0.000357659 0)
(0.00023106 -0.000375168 0)
(0.000265257 -0.000390551 0)
(0.000301254 -0.000403629 0)
(0.000338887 -0.000414158 0)
(0.000377949 -0.000421793 0)
(0.000418191 -0.000426031 0)
(0.00045934 -0.000426141 0)
(0.000501146 -0.000421082 0)
(0.000543466 -0.000409436 0)
(0.000586415 -0.000389353 0)
(0.000630578 -0.000358605 0)
(0.000677287 -0.000314787 0)
(0.000728864 -0.000255778 0)
(-1.11278e-07 -4.96063e-05 0)
(3.39445e-06 -9.29884e-05 0)
(1.03576e-05 -0.000130635 0)
(2.06769e-05 -0.000166596 0)
(3.39564e-05 -0.000200524 0)
(5.00013e-05 -0.000232551 0)
(6.86519e-05 -0.000262848 0)
(8.97688e-05 -0.000291498 0)
(0.000113235 -0.000318496 0)
(0.000138946 -0.00034378 0)
(0.000166811 -0.00036725 0)
(0.000196738 -0.000388784 0)
(0.000228634 -0.000408244 0)
(0.000262394 -0.000425464 0)
(0.000297896 -0.00044024 0)
(0.000334996 -0.0004523 0)
(0.000373534 -0.00046127 0)
(0.000413339 -0.000466637 0)
(0.000454261 -0.000467692 0)
(0.000496221 -0.000463489 0)
(0.000539296 -0.000452809 0)
(0.000583843 -0.000434164 0)
(0.000630658 -0.000405884 0)
(0.000681141 -0.000366316 0)
(0.000737417 -0.000314197 0)
(-1.40419e-07 -5.10039e-05 0)
(3.22396e-06 -9.82738e-05 0)
(1.00064e-05 -0.000139274 0)
(2.01085e-05 -0.000178298 0)
(3.31521e-05 -0.000215084 0)
(4.89464e-05 -0.000249795 0)
(6.73313e-05 -0.000282622 0)
(8.81658e-05 -0.000313671 0)
(0.000111325 -0.000342954 0)
(0.000136699 -0.000370422 0)
(0.000164189 -0.000395982 0)
(0.0001937 -0.000419514 0)
(0.000225136 -0.000440872 0)
(0.000258399 -0.000459884 0)
(0.000293382 -0.000476332 0)
(0.000329975 -0.000489934 0)
(0.000368069 -0.000500317 0)
(0.000407574 -0.000506986 0)
(0.000448447 -0.000509296 0)
(0.000490747 -0.000506424 0)
(0.000534704 -0.000497372 0)
(0.000580814 -0.000480989 0)
(0.000629951 -0.000456073 0)
(0.000683459 -0.000421541 0)
(0.000743197 -0.000376711 0)
(-1.69911e-07 -5.23051e-05 0)
(3.03578e-06 -0.000103379 0)
(9.60211e-06 -0.000147688 0)
(1.94385e-05 -0.000189743 0)
(3.21831e-05 -0.000229364 0)
(4.76537e-05 -0.000266738 0)
(6.56926e-05 -0.000302076 0)
(8.61563e-05 -0.000335501 0)
(0.000108919 -0.000367041 0)
(0.000133867 -0.000396661 0)
(0.000160899 -0.000424275 0)
(0.000189921 -0.000449767 0)
(0.000220841 -0.000472995 0)
(0.000253573 -0.000493782 0)
(0.000288033 -0.000511913 0)
(0.000324145 -0.000527111 0)
(0.000361852 -0.000539022 0)
(0.000401134 -0.000547198 0)
(0.000442037 -0.000551072 0)
(0.000484719 -0.000549963 0)
(0.000529505 -0.00054308 0)
(0.000576959 -0.000529568 0)
(0.000627949 -0.000508598 0)
(0.000683705 -0.000479506 0)
(0.000745814 -0.000442001 0)
(-1.98614e-07 -5.35037e-05 0)
(2.83662e-06 -0.000108283 0)
(9.16411e-06 -0.00015584 0)
(1.86973e-05 -0.000200881 0)
(3.10973e-05 -0.000243304 0)
(4.61894e-05 -0.000283314 0)
(6.382e-05 -0.000321137 0)
(8.38486e-05 -0.00035691 0)
(0.000106147 -0.00039068 0)
(0.000130605 -0.000422423 0)
(0.00015712 -0.000452063 0)
(0.000185603 -0.000479493 0)
(0.000215971 -0.000504576 0)
(0.000248153 -0.000527144 0)
(0.000282087 -0.000546991 0)
(0.000317731 -0.00056386 0)
(0.000355075 -0.000577432 0)
(0.000394154 -0.000587314 0)
(0.00043508 -0.000593033 0)
(0.000478077 -0.000594043 0)
(0.000523521 -0.000589741 0)
(0.000571991 -0.000579518 0)
(0.000624309 -0.000562833 0)
(0.000681562 -0.000539327 0)
(0.000745087 -0.000508965 0)
(-2.25843e-07 -5.4597e-05 0)
(2.63399e-06 -0.00011297 0)
(8.70639e-06 -0.000163704 0)
(1.79133e-05 -0.000211679 0)
(2.99354e-05 -0.000256862 0)
(4.46094e-05 -0.000299472 0)
(6.1788e-05 -0.000339749 0)
(8.13328e-05 -0.000377843 0)
(0.00010312 -0.000413815 0)
(0.00012704 -0.000447655 0)
(0.000152997 -0.000479301 0)
(0.000180905 -0.000508656 0)
(0.000210695 -0.000535593 0)
(0.000242309 -0.000559959 0)
(0.000275708 -0.000581566 0)
(0.000310879 -0.000600187 0)
(0.000347848 -0.000615546 0)
(0.000386694 -0.000627312 0)
(0.000427571 -0.000635106 0)
(0.00047074 -0.000638505 0)
(0.000516596 -0.000637072 0)
(0.0005657 -0.000630395 0)
(0.000618802 -0.000618152 0)
(0.000676849 -0.000600199 0)
(0.000740952 -0.000576669 0)
(-2.50843e-07 -5.55855e-05 0)
(2.43216e-06 -0.000117434 0)
(8.24309e-06 -0.000171266 0)
(1.71076e-05 -0.000222114 0)
(2.87313e-05 -0.000270008 0)
(4.29609e-05 -0.000315179 0)
(5.96557e-05 -0.000357875 0)
(7.86841e-05 -0.000398258 0)
(9.99251e-05 -0.000436406 0)
(0.000123274 -0.000472321 0)
(0.000148641 -0.000505956 0)
(0.000175948 -0.000537227 0)
(0.000205136 -0.000566023 0)
(0.000236161 -0.00059221 0)
(0.000269004 -0.000615624 0)
(0.000303676 -0.000636073 0)
(0.000340228 -0.000653325 0)
(0.000378768 -0.000667118 0)
(0.000419474 -0.000677157 0)
(0.000462622 -0.000683133 0)
(0.0005086 -0.000684744 0)
(0.000557933 -0.000681735 0)
(0.000611289 -0.000673949 0)
(0.000669477 -0.000661392 0)
(0.000733418 -0.000644305 0)
(-2.73319e-07 -5.64722e-05 0)
(2.23618e-06 -0.000121673 0)
(7.78253e-06 -0.000178518 0)
(1.6299e-05 -0.000232173 0)
(2.75116e-05 -0.000282723 0)
(4.12798e-05 -0.00033041 0)
(5.74713e-05 -0.000375487 0)
(7.59591e-05 -0.000418129 0)
(9.66297e-05 -0.000458424 0)
(0.000119383 -0.000496392 0)
(0.000144134 -0.000532001 0)
(0.000170816 -0.000565182 0)
(0.000199377 -0.000595844 0)
(0.000229786 -0.000623873 0)
(0.00026204 -0.000649134 0)
(0.000296165 -0.000671469 0)
(0.000332231 -0.000690697 0)
(0.000370359 -0.000706617 0)
(0.000410739 -0.000719013 0)
(0.000453642 -0.000727672 0)
(0.000499435 -0.000732404 0)
(0.000548593 -0.000733077 0)
(0.000601698 -0.000729655 0)
(0.000659433 -0.000722247 0)
(0.000722552 -0.00071116 0)
(-2.92874e-07 -5.72619e-05 0)
(2.04786e-06 -0.00012569 0)
(7.33344e-06 -0.000185459 0)
(1.54993e-05 -0.000241848 0)
(2.62964e-05 -0.000294998 0)
(3.95943e-05 -0.000345152 0)
(5.52688e-05 -0.000392569 0)
(7.32014e-05 -0.000437433 0)