/*--------------------------------*- C++ -*----------------------------------*\
  =========                 |
  \\      /  F ield         | OpenFOAM: The Open Source CFD Toolbox
   \\    /   O peration     | Website:  https://openfoam.org
    \\  /    A nd           | Version:  13
     \\/     M anipulation  |
\*---------------------------------------------------------------------------*/
FoamFile
{
    format      ascii;
    class       volVectorField;
    location    "30";
    object      U;
}
// * * * * * * * * * * * * * * * * * * * * * * * * * * * * * * * * * * * * * //

dimensions      [0 1 -1 0 0 0 0];

internalField   nonuniform List<vector> 
6440
(
(0.000633619 0.000447335 0)
(0.0597506 -0.0873077 0)
(0.141736 -0.120108 -5.64446e-16)
(0.241438 -0.12075 4.14574e-16)
(0.342439 -0.10819 0)
(0.43207 -0.0922592 -5.74858e-16)
(0.511193 -0.0765535 5.1084e-16)
(0.580227 -0.0620505 0)
(0.638552 -0.0483736 0)
(0.685174 -0.0347249 0)
(0.718651 -0.0207387 7.90828e-16)
(0.73832 -0.00646797 -1.55695e-15)
(0.742201 0.00885608 7.80169e-16)
(0.728478 0.0257336 0)
(0.695872 0.0433318 -1.60913e-15)
(0.643087 0.0612707 1.69297e-15)
(0.5698 0.0785992 0)
(0.476415 0.0938183 0)
(0.363207 0.104683 0)
(0.231312 0.103949 0)
(0.0874605 0.0829012 -4.20894e-15)
(-0.0334219 0.0364325 1.32565e-14)
(-0.07564 -0.0111997 -9.27364e-15)
(-0.0647514 -0.0378916 -9.9761e-15)
(-0.0218906 -0.0489368 8.43024e-15)
(0.0243761 -0.0911377 0)
(0.105904 -0.270318 0)
(0.193194 -0.308613 -3.71472e-16)
(0.28235 -0.287545 3.1138e-16)
(0.370989 -0.251722 0)
(0.45703 -0.216355 -4.86105e-16)
(0.538564 -0.184164 8.82892e-16)
(0.613796 -0.153974 -4.07417e-16)
(0.680856 -0.123239 0)
(0.737933 -0.0901802 0)
(0.783045 -0.0541769 0)
(0.814243 -0.015582 -7.10768e-16)
(0.829507 0.0242833 7.19281e-16)
(0.828564 0.0638755 7.05814e-16)
(0.807912 0.102517 -7.02222e-16)
(0.768975 0.139039 0)
(0.712754 0.172279 0)
(0.638873 0.200473 0)
(0.550809 0.221441 0)
(0.450807 0.230689 0)
(0.330425 0.220051 -2.26241e-15)
(0.195489 0.177797 2.93473e-15)
(0.0692533 0.0974486 0)
(-0.00292014 -0.0151121 -8.85844e-15)
(-0.00106749 -0.081649 1.68811e-14)
(0.0468502 -0.261307 0)
(0.125829 -0.437117 0)
(0.200695 -0.454366 0)
(0.27478 -0.425337 0)
(0.349817 -0.389051 0)
(0.425588 -0.353507 0)
(0.500578 -0.317027 4.11417e-16)
(0.572354 -0.276347 -3.87113e-16)
(0.637699 -0.228994 0)
(0.693354 -0.17444 0)
(0.736047 -0.113789 0)
(0.763021 -0.0490486 0)
(0.772757 0.0168869 0)
(0.765704 0.0796275 7.51953e-16)
(0.7433 0.137959 -2.21389e-15)
(0.707234 0.191099 1.47189e-15)
(0.659757 0.239476 0)
(0.602959 0.282446 0)
(0.538691 0.3178 0)
(0.467419 0.340999 0)
(0.38534 0.343866 0)
(0.287681 0.313 0)
(0.172614 0.233541 3.17765e-15)
(0.0612431 0.0898013 -5.78836e-15)
(0.000436671 -0.0721434 8.22489e-15)
(0.0463884 -0.409572 0)
(0.111692 -0.556229 0)
(0.169849 -0.560188 -2.76824e-16)
(0.224621 -0.531653 2.54125e-16)
(0.281039 -0.498634 0)
(0.342525 -0.462726 -4.397e-16)
(0.408852 -0.421376 4.14989e-16)
(0.476848 -0.370608 0)
(0.541819 -0.308358 7.75412e-16)
(0.598589 -0.235428 -7.75618e-16)
(0.641927 -0.153568 7.96765e-16)
(0.666043 -0.0639386 -1.68934e-15)
(0.66723 0.0310677 9.068e-16)
(0.647822 0.122636 0)
(0.612803 0.206263 0)
(0.56812 0.276982 0)
(0.51981 0.333433 1.69749e-15)
(0.471344 0.377552 8.22531e-19)
(0.423899 0.412349 -1.82701e-15)
(0.375521 0.437352 0)
(0.320584 0.444931 0)
(0.251127 0.419382 2.44411e-15)
(0.156398 0.336113 -3.1532e-15)
(0.0431513 0.144813 -5.0088e-15)
(-0.0420423 -0.134928 1.49643e-14)
(0.0265983 -0.50502 0)
(0.0681556 -0.61853 0)
(0.101688 -0.609424 -2.77067e-16)
(0.127215 -0.586872 2.65757e-16)
(0.155634 -0.557323 0)
(0.195877 -0.523762 -4.91167e-16)
(0.245452 -0.481063 4.74746e-16)
(0.301658 -0.423377 0)
(0.36046 -0.349209 9.3581e-16)
(0.417286 -0.260781 -9.6721e-16)
(0.467692 -0.162225 1.03752e-15)
(0.498103 -0.0624533 -2.32755e-15)
(0.492019 0.031403 1.26383e-15)
(0.460251 0.12665 0)
(0.415115 0.225444 2.22465e-15)
(0.366165 0.319815 -2.15354e-15)
(0.320245 0.397751 2.1505e-15)
(0.282998 0.452006 1.21394e-18)
(0.254197 0.486118 -2.29992e-15)
(0.227742 0.506764 0)
(0.194729 0.511594 2.58855e-15)
(0.145102 0.481012 1.11424e-18)
(0.064739 0.37174 -3.02437e-15)
(-0.0358415 0.102822 -4.07557e-15)
(-0.0985392 -0.252439 5.21279e-15)
(-0.00724363 -0.542881 0)
(-4.94554e-05 -0.632196 0)
(-0.00216064 -0.614461 -3.07044e-16)
(-0.015861 -0.590246 3.13468e-16)
(-0.0228628 -0.564214 0)
(-0.0148744 -0.527841 -6.50589e-16)
(0.00274588 -0.477599 6.72934e-16)
(0.0307261 -0.408826 0)
(0.0688313 -0.314526 1.59755e-15)
(0.117939 -0.19155 -1.98616e-15)
(0.17476 -0.0487347 2.99558e-15)
(0.214218 0.0819326 -9.90966e-15)
(0.161273 0.150409 4.04686e-15)
(0.102458 0.207988 0)
(0.0750742 0.294277 -4.16969e-15)
(0.0613093 0.383373 3.33893e-15)
(0.0493199 0.454426 2.83828e-15)
(0.0455898 0.498465 1.58188e-18)
(0.0498592 0.521262 -2.39924e-15)
(0.0524164 0.531761 0)
(0.0441844 0.526242 -2.22898e-15)
(0.0161515 0.487451 4.45873e-15)
(-0.0466134 0.342859 -2.42635e-15)
(-0.141982 -0.0266524 -4.04513e-15)
(-0.139107 -0.36428 3.95412e-15)
(-0.0546692 -0.522996 0)
(-0.0919651 -0.558647 0)
(-0.142008 -0.536685 -2.94704e-16)
(-0.202627 -0.512422 2.75859e-16)
(-0.253311 -0.487377 0)
(-0.290304 -0.456501 -4.85407e-16)
(-0.316336 -0.413352 4.67565e-16)
(-0.326543 -0.347592 0)
(-0.316686 -0.250277 9.57e-16)
(-0.291274 -0.127233 -1.04161e-15)
(-0.271513 -0.0039964 1.18908e-15)
(-0.284544 0.0875651 -2.76063e-15)
(-0.318906 0.147012 1.22842e-15)
(-0.339366 0.20582 0)
(-0.321683 0.284642 0)
(-0.280028 0.368234 0)
(-0.235818 0.432908 1.77324e-15)
(-0.19175 0.470182 1.13787e-18)
(-0.149049 0.489767 -1.80469e-15)
(-0.115439 0.498464 0)
(-0.0975115 0.491509 0)
(-0.104783 0.435866 1.95819e-15)
(-0.155709 0.239969 -2.31592e-15)
(-0.248037 -0.225249 -5.30478e-15)
(-0.150456 -0.426538 3.32646e-15)
(-0.10786 -0.426513 0)
(-0.204421 -0.434494 0)
(-0.3046 -0.412205 -2.59258e-16)
(-0.412172 -0.392899 2.26708e-16)
(-0.509336 -0.375308 0)
(-0.593095 -0.353189 -3.58738e-16)
(-0.664691 -0.31995 3.29421e-16)
(-0.718366 -0.268403 0)
(-0.7479 -0.193816 6.02614e-16)
(-0.751148 -0.0970547 -6.11492e-16)
(-0.735334 0.00925936 6.48022e-16)
(-0.717767 0.098792 -1.42476e-15)
(-0.70806 0.15423 7.11664e-16)
(-0.686272 0.193505 0)
(-0.63388 0.238666 0)
(-0.556908 0.290562 0)
(-0.472956 0.336837 1.48688e-15)
(-0.390973 0.371459 1.03802e-18)
(-0.31406 0.397151 -1.62997e-15)
(-0.247309 0.415632 0)
(-0.200333 0.412658 0)
(-0.188356 0.339617 1.95064e-15)
(-0.238355 0.08129 -2.51061e-15)
(-0.31548 -0.417977 -5.64693e-15)
(-0.15121 -0.453396 6.02741e-15)
(-0.163538 -0.263522 0)
(-0.326507 -0.263063 0)
(-0.477515 -0.241147 0)
(-0.63118 -0.22639 0)
(-0.772815 -0.215482 3.42898e-16)
(-0.900655 -0.202953 -2.97508e-16)
(-1.01563 -0.184826 2.6422e-16)
(-1.11131 -0.156686 -2.41281e-16)
(-1.17943 -0.11492 4.52399e-16)
(-1.21236 -0.0585857 -3.3393e-19)
(-1.20563 0.00803461 -2.24641e-19)
(-1.16258 0.0740147 -4.60932e-16)
(-1.09476 0.1268 -4.87051e-16)
(-1.00928 0.164807 1.0436e-15)
(-0.901554 0.197507 -1.72743e-15)
(-0.77322 0.231345 1.3075e-15)
(-0.643432 0.257848 0)
(-0.527482 0.2707 1.56509e-15)
(-0.426763 0.281178 -1.66586e-15)
(-0.332994 0.300828 1.7817e-15)
(-0.255571 0.303347 7.04814e-19)
(-0.227562 0.214612 4.80199e-19)
(-0.281504 -0.097309 -3.21704e-15)
(-0.323496 -0.537837 0)
(-0.144413 -0.467938 -2.86503e-15)
(-0.217316 -0.0724031 0)
(-0.447545 -0.0447634 0)
(-0.64279 -0.028382 0)
(-0.834481 -0.0220478 0)
(-1.01358 -0.0196841 -2.94839e-16)
(-1.18156 -0.0180634 2.53767e-16)
(-1.34149 -0.0172654 -2.23621e-16)
(-1.48897 -0.0168565 2.01857e-16)
(-1.61655 -0.0165997 0)
(-1.71613 -0.0170465 -3.49034e-16)
(-1.77984 -0.0202018 2.2702e-19)
(-1.80016 -0.0297056 3.24866e-16)
(-1.77047 -0.0418105 0)
(-1.68445 -0.0580328 -3.36598e-16)
(-1.53267 -0.0576579 1.08416e-15)
(-1.30704 -0.0238213 -8.21159e-16)
(-1.01978 0.0502146 9.80927e-16)
(-0.713599 0.147217 -1.26162e-15)
(-0.489761 0.1985 0)
(-0.361878 0.190783 -2.1184e-15)
(-0.269471 0.165674 4.75008e-15)
(-0.240766 0.0490902 -5.69707e-15)
(-0.289191 -0.300866 5.20435e-15)
(-0.311052 -0.565909 0)
(-0.13282 -0.472776 -2.82806e-15)
(-0.242419 0.159885 0)
(-0.497308 0.202761 0)
(-0.715346 0.208168 0)
(-0.92858 0.205552 0)
(-1.13016 0.199695 2.49025e-16)
(-1.32314 0.191134 -2.16755e-16)
(-1.51103 0.176689 1.92803e-16)
(-1.69021 0.154205 -1.75509e-16)
(-1.85427 0.121636 3.25031e-16)
(-1.99734 0.0769662 -3.70387e-19)
(-2.11094 0.0186809 -2.93223e-16)
(-2.18077 -0.0549658 0)
(-2.23315 -0.14349 -2.71524e-16)
(-2.24081 -0.24058 5.28211e-16)
(-2.19273 -0.333535 -7.87224e-16)
(-2.05844 -0.401485 5.38631e-16)
(-1.81921 -0.423414 0)
(-1.45474 -0.362684 6.90613e-16)
(-0.974733 -0.213719 -9.4949e-16)
(-0.536577 -0.0690753 1.46678e-15)
(-0.33786 -0.0364576 8.07167e-19)
(-0.269592 -0.160276 -4.64904e-15)
(-0.293129 -0.443462 0)
(-0.282874 -0.580721 0)
(-0.124183 -0.469363 0)
(-0.224491 0.417307 0)
(-0.468159 0.452166 0)
(-0.688879 0.448486 1.50411e-16)
(-0.902354 0.440042 -1.25799e-16)
(-1.10508 0.428538 0)
(-1.30218 0.411554 1.91381e-16)
(-1.49732 0.383591 -3.45118e-16)
(-1.6867 0.340884 1.58632e-16)
(-1.86391 0.280362 0)
(-2.02184 0.200072 0)
(-2.15405 0.100517 0)
(-2.25563 -0.0142612 2.76756e-16)
(-2.32376 -0.140941 -2.64857e-16)
(-2.35931 -0.276743 -2.51008e-16)
(-2.37605 -0.416471 -2.41371e-16)
(-2.34284 -0.55149 4.70412e-16)
(-2.25043 -0.667683 4.70932e-16)
(-2.07302 -0.736821 -4.89021e-16)
(-1.75884 -0.728609 0)
(-1.29318 -0.603919 0)
(-0.796836 -0.433724 1.12598e-15)
(-0.48474 -0.386881 -2.2947e-15)
(-0.39453 -0.512133 0)
(-0.299766 -0.595047 3.09039e-15)
(-0.120462 -0.445436 -6.04086e-15)
(-0.181393 0.692788 0)
(-0.398036 0.689312 0)
(-0.605716 0.677492 -1.3306e-16)
(-0.803872 0.66632 1.14538e-16)
(-0.992329 0.652172 2.00978e-16)
(-1.17819 0.62884 -3.59846e-16)
(-1.36447 0.588835 3.27867e-16)
(-1.54557 0.52686 -1.52451e-16)
(-1.71298 0.438877 0)
(-1.85741 0.32384 2.81678e-16)
(-1.97059 0.186397 -2.82722e-16)
(-2.04929 0.0370817 -2.90769e-16)
(-2.10084 -0.114223 1.27343e-19)
(-2.13726 -0.263894 5.38532e-16)
(-2.16239 -0.413364 -7.63499e-16)
(-2.17413 -0.562705 4.84456e-16)
(-2.16902 -0.710602 0)
(-2.13315 -0.850238 0)
(-1.98903 -0.95102 0)
(-1.77278 -0.982762 5.05951e-16)
(-1.43012 -0.886965 -6.22109e-16)
(-0.982407 -0.72526 0)
(-0.615655 -0.652811 0)
(-0.357899 -0.63762 -2.23879e-15)
(-0.126 -0.422635 -3.10858e-19)
(-0.134856 0.898702 0)
(-0.314927 0.898464 0)
(-0.497636 0.881569 1.22778e-16)
(-0.669218 0.871575 -1.08188e-16)
(-0.833513 0.857811 -1.92841e-16)
(-0.998888 0.829839 3.4984e-16)
(-1.16614 0.778617 -3.2272e-16)
(-1.32703 0.696456 1.52246e-16)
(-1.47067 0.577888 0)
(-1.5853 0.424054 -2.95333e-16)
(-1.66386 0.24826 3.08347e-16)
(-1.71123 0.0725614 3.32013e-16)
(-1.74441 -0.0896258 -3.39249e-16)
(-1.77267 -0.243046 -3.14573e-16)
(-1.78995 -0.393883 -2.94877e-16)
(-1.79673 -0.542904 5.5532e-16)
(-1.79524 -0.69423 5.28195e-16)
(-1.78631 -0.851859 -5.02214e-16)
(-1.7671 -1.00808 0)
(-1.73208 -1.13723 -4.8387e-16)
(-1.61651 -1.18747 1.03418e-15)
(-1.36569 -1.10354 -6.29139e-16)
(-0.927578 -0.931224 0)
(-0.466622 -0.761193 1.40172e-15)
(-0.156244 -0.482037 -2.31581e-15)
(-0.0930749 1.05207 7.22477e-17)
(-0.232996 1.07114 6.43537e-17)
(-0.381894 1.05307 -1.16674e-16)
(-0.520987 1.0487 2.08858e-16)
(-0.656888 1.03795 -2.72487e-19)
(-0.79838 1.00684 -1.73668e-16)
(-0.94423 0.945037 1.61838e-16)
(-1.08543 0.840515 1.54503e-16)
(-1.21066 0.684737 -3.07543e-16)
(-1.30822 0.482764 3.18551e-16)
(-1.37687 0.263663 -3.47855e-16)
(-1.42999 0.0669156 0)
(-1.47626 -0.0991321 -3.99798e-16)
(-1.50705 -0.261188 7.26171e-16)
(-1.51745 -0.426276 -3.3429e-16)
(-1.50984 -0.584352 6.27725e-16)
(-1.48641 -0.734803 -5.95602e-16)
(-1.45189 -0.882642 0)
(-1.41812 -1.03576 0)
(-1.40398 -1.19388 5.29606e-16)
(-1.41839 -1.32478 7.28815e-19)
(-1.44882 -1.35841 -5.64159e-16)
(-1.12284 -1.24246 0)
(-0.62423 -1.00108 0)
(-0.192739 -0.624781 -1.77529e-15)
(-0.0560819 1.15328 0)
(-0.156373 1.2035 0)
(-0.266687 1.18916 0)
(-0.371936 1.19443 0)
(-0.478607 1.18844 0)
(-0.595266 1.15668 0)
(-0.719535 1.08726 0)
(-0.844395 0.962805 0)
(-0.959991 0.770296 3.23686e-16)
(-1.05595 0.523003 -3.48513e-16)
(-1.1369 0.273225 0)
(-1.21303 0.0737805 0)
(-1.27056 -0.0989105 0)
(-1.29686 -0.289981 0)
(-1.30043 -0.489968 0)
(-1.28356 -0.675867 0)
(-1.24609 -0.841156 -6.49936e-16)
(-1.1922 -0.985003 1.25745e-15)
(-1.13264 -1.11817 -1.22265e-15)
(-1.09667 -1.25477 5.91502e-16)
(-1.1293 -1.38297 5.77655e-16)
(-1.20321 -1.45806 -5.81195e-16)
(-1.12714 -1.43775 -6.35914e-16)
(-0.709629 -1.24206 8.46219e-16)
(-0.227607 -0.783464 -1.46115e-15)
(-0.0251112 1.20961 0)
(-0.0842289 1.29681 0)
(-0.155251 1.28917 1.11824e-16)
(-0.228676 1.30666 -1.02366e-16)
(-0.306319 1.30692 0)
(-0.396914 1.2774 1.77692e-16)
(-0.497886 1.20639 -3.39452e-16)
(-0.606618 1.06892 1.67025e-16)
(-0.714924 0.848927 3.45134e-16)
(-0.813825 0.569371 -3.84294e-16)
(-0.906963 0.310293 -4.52132e-16)
(-0.988891 0.114583 1.05694e-15)
(-1.03438 -0.0813702 -5.53458e-16)
(-1.04609 -0.316849 -4.62585e-16)
(-1.04371 -0.556288 -4.07534e-16)
(-1.0211 -0.775365 7.45122e-16)
(-0.978254 -0.960974 0)
(-0.921974 -1.10694 6.9119e-16)
(-0.859258 -1.22078 -6.79414e-16)
(-0.805414 -1.32502 0)
(-0.811022 -1.42576 6.50792e-16)
(-0.915012 -1.48175 -1.2737e-15)
(-0.943894 -1.47894 6.41617e-16)
(-0.690955 -1.38841 7.59863e-16)
(-0.253393 -0.935747 -2.4865e-15)
(0.00230926 1.22562 6.58793e-17)
(-0.0154456 1.35156 5.94107e-17)
(-0.0492741 1.35382 -1.12832e-16)
(-0.0929832 1.38432 2.07542e-16)
(-0.142059 1.39046 -3.88503e-16)
(-0.204342 1.36621 1.84682e-16)
(-0.278257 1.29861 0)
(-0.366255 1.15656 3.53747e-16)
(-0.46431 0.919175 -3.7453e-16)
(-0.56226 0.622202 -4.31407e-16)
(-0.653067 0.367344 5.28549e-16)
(-0.715397 0.169064 0)
(-0.733179 -0.0662588 7.12706e-16)
(-0.733473 -0.345945 -5.62406e-16)
(-0.731383 -0.62184 9.47979e-16)
(-0.708354 -0.86909 1.79299e-18)
(-0.664566 -1.0728 -1.60626e-15)
(-0.611523 -1.22092 7.81477e-16)
(-0.558466 -1.31841 -7.76981e-16)
(-0.51165 -1.3896 -2.01834e-18)
(-0.501005 -1.4601 1.50999e-15)
(-0.583443 -1.48881 -7.39382e-16)
(-0.638591 -1.4696 0)
(-0.565405 -1.4133 0)
(-0.283677 -1.09841 0)
(0.0283286 1.20069 0)
(0.0505552 1.36393 0)
(0.0507213 1.38642 0)
(0.0339397 1.42862 0)
(0.0136245 1.44014 0)
(-0.0182101 1.42217 0)
(-0.0606185 1.36267 -1.90188e-16)
(-0.121765 1.22605 1.92297e-16)
(-0.202496 0.986931 4.15055e-16)
(-0.290052 0.685304 -5.00017e-16)
(-0.365904 0.430234 -6.59379e-16)
(-0.404155 0.207826 8.8687e-16)
(-0.398098 -0.0783429 0)
(-0.384692 -0.393403 -7.41595e-16)
(-0.384069 -0.69863 5.90241e-16)
(-0.363515 -0.962496 0)
(-0.3259 -1.17168 0)
(-0.279518 -1.31647 8.99372e-16)
(-0.236757 -1.40098 -1.65922e-15)
(-0.204301 -1.44553 7.7163e-16)
(-0.197923 -1.48461 7.40966e-16)
(-0.254422 -1.49549 -1.48284e-15)
(-0.28588 -1.42939 7.64177e-16)
(-0.305733 -1.3902 0)
(-0.253145 -1.20072 -1.08438e-15)
(0.0537974 1.13853 0)
(0.112822 1.3461 0)
(0.142909 1.38855 1.06276e-16)
(0.152042 1.43961 -1.02239e-16)
(0.160323 1.45567 0)
(0.159653 1.44274 2.0503e-16)
(0.15468 1.39009 -4.17963e-16)
(0.130706 1.25799 2.16744e-16)
(0.0765183 1.01415 4.80102e-16)
(-0.000516627 0.693435 -6.0915e-16)
(-0.0818781 0.42201 0)
(-0.124836 0.179354 1.56227e-15)
(-0.0892062 -0.140123 -1.79329e-15)
(-0.039621 -0.477469 -1.06176e-15)
(-0.0232636 -0.802913 -6.84397e-16)
(0.00179675 -1.07179 9.65811e-16)
(0.0328142 -1.27134 0)
(0.0668465 -1.40163 6.92733e-16)
(0.0980382 -1.47083 -6.44245e-16)
(0.117724 -1.49593 0)
(0.116368 -1.50073 0)
(0.0781077 -1.4854 0)
(0.0778735 -1.39972 0)
(0.0911179 -1.37092 7.37934e-16)
(-0.0825641 -1.21355 -2.17109e-15)
(0.0786308 1.0358 0)
(0.170559 1.29819 0)
(0.22688 1.36516 0)
(0.258006 1.42075 0)
(0.290873 1.44089 0)
(0.321302 1.42903 0)
(0.35173 1.38713 0)
(0.371541 1.28548 0)
(0.363628 1.0772 0)
(0.320996 0.764312 0)
(0.251715 0.439727 0)
(0.181639 0.139328 0)
(0.232041 -0.207893 0)
(0.292104 -0.577189 0)
(0.330885 -0.91613 0)
(0.365561 -1.18281 0)
(0.393649 -1.36739 0)
(0.418233 -1.47736 0)
(0.441162 -1.52705 0)
(0.455678 -1.53533 0)
(0.456057 -1.51233 0)
(0.446012 -1.46335 0)
(0.448203 -1.3602 0)
(0.513593 -1.21381 0)
(0.455001 -1.13456 0)
(0.0942451 0.892978 0)
(0.217525 1.22387 0)
(0.29974 1.31833 0)
(0.351056 1.3754 0)
(0.402845 1.39731 0)
(0.458226 1.38768 0)
(0.517949 1.34772 0)
(0.576176 1.26047 0)
(0.619199 1.09113 0)
(0.633086 0.818476 0)
(0.616523 0.484079 0)
(0.586169 0.135853 0)
(0.603064 -0.229319 0)
(0.637364 -0.606774 0)
(0.676998 -0.941989 0)
(0.708543 -1.1996 0)
(0.726428 -1.37512 0)
(0.740548 -1.47914 0)
(0.759254 -1.52685 0)
(0.77909 -1.53117 0)
(0.794432 -1.50388 0)
(0.808703 -1.44544 0)
(0.820148 -1.35028 0)
(0.838385 -1.22066 0)
(0.914254 -1.09012 0)
(0.0904682 0.71927 0)
(0.24349 1.11237 0)
(0.356918 1.24965 0)
(0.428733 1.31295 0)
(0.493258 1.33194 0)
(0.563631 1.31784 0)
(0.64173 1.27852 0)
(0.726014 1.19523 0)
(0.808348 1.0436 0)
(0.874261 0.801598 0)
(0.915137 0.480155 0)
(0.93288 0.106886 0)
(0.948184 -0.291255 0)
(0.967411 -0.672704 0)
(0.989568 -0.994139 0)
(1.00488 -1.23749 0)
(1.01313 -1.40461 0)
(1.02643 -1.50626 0)
(1.05229 -1.55493 0)
(1.08607 -1.5598 0)
(1.11918 -1.52915 0)
(1.1492 -1.46534 0)
(1.18131 -1.37091 0)
(1.20763 -1.24826 0)
(1.234 -1.07203 0)
(0.0673801 0.546202 0)
(0.23635 0.961787 0)
(0.386892 1.15184 0)
(0.488235 1.2367 0)
(0.564228 1.25946 0)
(0.636975 1.24111 0)
(0.718698 1.19469 0)
(0.812106 1.10737 0)
(0.91254 0.957947 0)
(1.009 0.728418 0)
(1.08706 0.417874 0)
(1.13859 0.0458269 0)
(1.16986 -0.347916 0)
(1.18745 -0.714684 0)
(1.19793 -1.01893 0)
(1.20443 -1.2532 0)
(1.21779 -1.42258 0)
(1.24803 -1.53359 0)
(1.29533 -1.59089 0)
(1.35041 -1.60019 0)
(1.40482 -1.56744 0)
(1.45372 -1.49688 0)
(1.49563 -1.38958 0)
(1.53299 -1.25249 0)
(1.56737 -1.09977 0)
(0.038958 0.397044 0)
(0.196218 0.783699 0)
(0.379329 1.01432 0)
(0.520294 1.13838 0)
(0.613259 1.18387 0)
(0.682247 1.17063 0)
(0.753255 1.11543 0)
(0.838012 1.01612 0)
(0.935937 0.859536 0)
(1.03754 0.6313 0)
(1.12979 0.330362 0)
(1.19738 -0.0261584 0)
(1.23955 -0.402956 0)
(1.25901 -0.751382 0)
(1.26988 -1.04437 0)
(1.29012 -1.28214 0)
(1.33113 -1.46609 0)
(1.39187 -1.59209 0)
(1.46286 -1.65708 0)
(1.53229 -1.66581 0)
(1.5956 -1.62624 0)
(1.65189 -1.54513 0)
(1.7024 -1.42817 0)
(1.7491 -1.28114 0)
(1.7927 -1.11169 0)
(0.0193803 0.279218 0)
(0.141121 0.603757 0)
(0.331685 0.842406 0)
(0.513181 1.00795 0)
(0.633175 1.10051 0)
(0.698982 1.11217 0)
(0.751041 1.05332 0)
(0.814176 0.939405 0)
(0.893736 0.769689 0)
(0.983835 0.537229 0)
(1.0704 0.243356 0)
(1.13327 -0.096582 0)
(1.17691 -0.454723 0)
(1.19803 -0.787394 0)
(1.22796 -1.08487 0)
(1.28349 -1.34282 0)
(1.35919 -1.54494 0)
(1.44011 -1.67723 0)
(1.51399 -1.73675 0)
(1.57395 -1.73478 0)
(1.62626 -1.68336 0)
(1.6755 -1.59074 0)
(1.72615 -1.4648 0)
(1.78241 -1.31363 0)
(1.84355 -1.14625 0)
(0.00724108 0.19845 0)
(0.0860047 0.457779 0)
(0.253295 0.652816 0)
(0.456543 0.83497 0)
(0.609826 0.999235 0)
(0.679539 1.06335 0)
(0.712488 1.0143 0)
(0.749543 0.888127 0)
(0.803087 0.703061 0)
(0.869669 0.462801 0)
(0.937843 0.17351 0)
(0.985848 -0.153558 0)
(1.01149 -0.497258 0)
(1.04417 -0.838472 0)
(1.11621 -1.16554 0)
(1.21159 -1.44349 0)
(1.30189 -1.64276 0)
(1.3711 -1.75909 0)
(1.41713 -1.79868 0)
(1.45839 -1.78189 0)
(1.49472 -1.72166 0)
(1.53504 -1.62638 0)
(1.5842 -1.50354 0)
(1.64154 -1.3594 0)
(1.7187 -1.19948 0)
(-0.00957919 0.188949 0)
(0.0474095 0.389565 0)
(0.173054 0.499384 0)
(0.357149 0.633293 0)
(0.533498 0.866632 0)
(0.61275 1.01506 0)
(0.63228 0.991726 0)
(0.646787 0.868154 0)
(0.673943 0.667216 0)
(0.715862 0.417117 0)
(0.757028 0.131204 0)
(0.769074 -0.184522 0)
(0.783239 -0.543971 0)
(0.862646 -0.93419 0)
(0.988234 -1.28802 0)
(1.10309 -1.55103 0)
(1.18082 -1.71465 0)
(1.22009 -1.79752 0)
(1.23131 -1.81726 0)
(1.23616 -1.79836 0)
(1.25061 -1.7438 0)
(1.28084 -1.66119 0)
(1.32989 -1.55513 0)
(1.3969 -1.42896 0)
(1.48365 -1.28587 0)
(-0.00751721 0.329239 0)
(0.080168 0.430974 0)
(0.20356 0.479469 0)
(0.302988 0.518619 0)
(0.428523 0.735928 0)
(0.498886 0.973442 0)
(0.505649 0.980635 0)
(0.504096 0.870513 0)
(0.51118 0.658139 0)
(0.531678 0.396625 0)
(0.547277 0.118961 0)
(0.509763 -0.201348 0)
(0.562908 -0.643614 0)
(0.721909 -1.08771 0)
(0.885496 -1.4232 0)
(1.00296 -1.6358 0)
(1.07234 -1.7537 0)
(1.10751 -1.80922 0)
(1.13086 -1.8222 0)
(1.14708 -1.80689 0)
(1.15827 -1.76485 0)
(1.17058 -1.69952 0)
(1.19044 -1.61327 0)
(1.23535 -1.50697 0)
(1.30344 -1.38385 0)
(0.0244858 0.441743 0)
(0.196507 0.394117 0)
(0.338063 0.418058 0)
(0.33822 0.486943 0)
(0.335887 0.692697 0)
(0.35368 0.973451 0)
(0.337768 0.996841 0)
(0.322478 0.886347 0)
(0.316068 0.664898 0)
(0.326275 0.395408 0)
(0.328362 0.125326 0)
(0.265159 -0.263347 0)
(0.433483 -0.832123 0)
(0.647934 -1.27925 0)
(0.820209 -1.56013 0)
(0.940822 -1.71964 0)
(1.02163 -1.80345 0)
(1.0801 -1.84075 0)
(1.12226 -1.84626 0)
(1.15225 -1.82685 0)
(1.17374 -1.78635 0)
(1.19271 -1.72749 0)
(1.21403 -1.65267 0)
(1.24198 -1.56363 0)
(1.28841 -1.4618 0)
(0.0911332 0.0453399 0)
(0.248849 -0.0784006 0)
(0.356994 0.165596 0)
(0.329214 0.436279 0)
(0.229456 0.705998 0)
(0.183656 1.00367 0)
(0.137982 1.04672 0)
(0.109328 0.932992 0)
(0.0928959 0.69979 0)
(0.100925 0.412699 0)
(0.0869151 0.193229 0)
(0.140869 -0.439673 0)
(0.386739 -1.07999 0)
(0.598597 -1.48134 0)
(0.764464 -1.70611 0)
(0.891868 -1.82591 0)
(0.989565 -1.88424 0)
(1.06436 -1.90288 0)
(1.12268 -1.8928 0)
(1.1699 -1.86116 0)
(1.21091 -1.81347 0)
(1.24828 -1.75332 0)
(1.28609 -1.68273 0)
(1.32759 -1.60292 0)
(1.37407 -1.51452 0)
(0.0993604 -0.410896 0)
(0.227315 -0.38669 0)
(0.3008 -0.00905365 0)
(0.262978 0.405109 0)
(0.0913286 0.772812 0)
(-0.00883426 1.08934 0)
(-0.0822909 1.13945 0)
(-0.123493 1.01039 0)
(-0.147407 0.76188 0)
(-0.134892 0.512169 0)
(-0.115464 0.251671 0)
(0.110619 -0.685816 0)
(0.349229 -1.31416 0)
(0.546891 -1.66796 0)
(0.711358 -1.85403 0)
(0.846347 -1.94543 0)
(0.955836 -1.98086 0)
(1.04419 -1.98023 0)
(1.11722 -1.95518 0)
(1.18036 -1.91343 0)
(1.23866 -1.85984 0)
(1.29494 -1.79732 0)
(1.35008 -1.7272 0)
(1.40584 -1.64947 0)
(1.46344 -1.56341 0)
(0.0831625 -0.647746 0)
(0.193919 -0.489302 0)
(0.262353 -0.0130297 0)
(0.123453 0.493879 0)
(-0.106405 0.929751 0)
(-0.225665 1.21462 0)
(-0.307291 1.24595 0)
(-0.368204 1.11663 0)
(-0.406665 0.901199 0)
(-0.36489 0.615031 0)
(-0.221133 0.12759 0)
(0.0865163 -0.913738 0)
(0.321815 -1.51985 0)
(0.520501 -1.84503 0)
(0.688329 -2.00348 0)
(0.827548 -2.06971 0)
(0.942092 -2.08342 0)
(1.03703 -2.0658 0)
(1.11816 -2.02909 0)
(1.19069 -1.98043 0)
(1.25895 -1.92339 0)
(1.32606 -1.8597 0)
(1.3936 -1.78982 0)
(1.46285 -1.71289 0)
(1.53537 -1.62825 0)
(0.0786032 -0.691577 0)
(0.155725 -0.416247 0)
(0.14137 0.115049 0)
(-0.0875841 0.668067 0)
(-0.287864 1.091 0)
(-0.413573 1.32941 0)
(-0.523663 1.35701 0)
(-0.612931 1.23969 0)
(-0.621621 0.990208 0)
(-0.493114 0.546525 0)
(-0.212874 -0.20744 0)
(0.0952137 -1.14284 0)
(0.333539 -1.72877 0)
(0.534469 -2.02713 0)
(0.702527 -2.15674 0)
(0.841225 -2.1967 0)
(0.955436 -2.18877 0)
(1.0509 -2.15502 0)
(1.13364 -2.10765 0)
(1.20922 -2.05308 0)
(1.28186 -1.99413 0)
(1.3547 -1.93139 0)
(1.43014 -1.86418 0)
(1.51081 -1.79186 0)
(1.59972 -1.71416 0)
(0.0544066 -0.560015 0)
(0.0569133 -0.214175 0)
(-0.0794161 0.352632 0)
(-0.298111 0.870222 0)
(-0.469484 1.23188 0)
(-0.612448 1.41765 0)
(-0.737585 1.44958 0)
(-0.787986 1.29861 0)
(-0.714956 0.969713 0)
(-0.490989 0.405209 0)
(-0.137678 -0.480192 0)
(0.158576 -1.37289 0)
(0.391647 -1.93763 0)
(0.586321 -2.20775 0)
(0.747552 -2.30769 0)
(0.879931 -2.32139 0)
(0.989009 -2.29212 0)
(1.08085 -2.24278 0)
(1.16159 -2.18574 0)
(1.23666 -2.12672 0)
(1.31039 -2.06744 0)
(1.38608 -2.00755 0)
(1.46664 -1.94601 0)
(1.5549 -1.88224 0)
(1.65447 -1.81645 0)
(0.0149149 -0.379355 0)
(-0.0813009 0.0604933 0)
(-0.286897 0.613849 0)
(-0.463858 1.05101 0)
(-0.588969 1.34588 0)
(-0.684904 1.48584 0)
(-0.739685 1.45609 0)
(-0.78528 1.26017 0)
(-0.653924 0.870404 0)
(-0.354874 0.268177 0)
(0.0193255 -0.730082 0)
(0.285245 -1.57787 0)
(0.499068 -2.13109 0)
(0.676065 -2.3751 0)
(0.820785 -2.44713 0)
(0.939272 -2.43652 0)
(1.03746 -2.38806 0)
(1.12135 -2.32543 0)
(1.19687 -2.26094 0)
(1.26907 -2.19942 0)
(1.34173 -2.14152 0)
(1.4178 -2.08603 0)
(1.49968 -2.03155 0)
(1.58998 -1.97738 0)
(1.69087 -1.92406 0)
(-0.0357592 -0.183731 0)
(-0.214353 0.356855 0)
(-0.41115 0.840574 0)
(-0.53378 1.19226 0)
(-0.595188 1.40428 0)
(-0.639124 1.48134 0)
(-0.679433 1.39955 0)
(-0.663304 1.15045 0)
(-0.445216 0.708953 0)
(-0.0783217 0.0102902 0)
(0.23834 -0.941572 0)
(0.464915 -1.75431 0)
(0.649194 -2.29988 0)
(0.797912 -2.51875 0)
(0.916983 -2.56633 0)
(1.01448 -2.5354 0)
(1.09634 -2.47169 0)
(1.16823 -2.39953 0)
(1.2357 -2.33078 0)
(1.30298 -2.26921 0)
(1.37286 -2.21424 0)
(1.44719 -2.16384 0)
(1.52761 -2.11631 0)
(1.61542 -2.07079 0)
(1.71203 -2.02736 0)
(-0.0786917 -0.0025737 0)
(-0.282603 0.606087 0)
(-0.428378 1.00575 0)
(-0.491569 1.27825 0)
(-0.495352 1.4072 0)
(-0.484713 1.43081 0)
(-0.482161 1.26529 0)
(-0.410636 0.952979 0)
(-0.115287 0.520682 0)
(0.227539 -0.294723 0)
(0.486475 -1.14608 0)
(0.670475 -1.90615 0)
(0.822547 -2.43876 0)
(0.938307 -2.63106 0)
(1.02631 -2.6589 0)
(1.09825 -2.613 0)
(1.16031 -2.53925 0)
(1.21784 -2.46229 0)
(1.27564 -2.39324 0)
(1.33679 -2.3344 0)
(1.40276 -2.2839 0)
(1.47434 -2.23918 0)
(1.55202 -2.19835 0)
(1.63694 -2.1605 0)
(1.7303 -2.1258 0)
(-0.0762152 0.193117 0)
(-0.25926 0.770248 0)
(-0.353152 1.10215 0)
(-0.360283 1.29681 0)
(-0.305422 1.3752 0)
(-0.248709 1.30912 0)
(-0.20418 1.06646 0)
(-0.0695273 0.686769 0)
(0.269923 0.061894 0)
(0.53961 -0.627792 0)
(0.719988 -1.33373 0)
(0.870288 -2.03654 0)
(0.997335 -2.54904 0)
(1.08055 -2.71065 0)
(1.13642 -2.72243 0)
(1.18174 -2.66725 0)
(1.22324 -2.58914 0)
(1.26611 -2.5127 0)
(1.31416 -2.4476 0)
(1.36895 -2.39432 0)
(1.43055 -2.34999 0)
(1.49866 -2.31177 0)
(1.57358 -2.2779 0)
(1.65575 -2.24789 0)
(1.74611 -2.22223 0)
(-0.0425703 0.332556 0)
(-0.17061 0.856774 0)
(-0.219395 1.1293 0)
(-0.182917 1.26678 0)
(-0.0843893 1.2812 0)
(0.0240874 1.14547 0)
(0.0963498 0.837218 0)
(0.298619 0.38181 0)
(0.585415 -0.238089 0)
(0.774044 -0.834988 0)
(0.902745 -1.47638 0)
(1.04472 -2.15445 0)
(1.15551 -2.6374 0)
(1.20944 -2.76067 0)
(1.23584 -2.75852 0)
(1.25652 -2.69883 0)
(1.27914 -2.62207 0)
(1.30894 -2.55149 0)
(1.34835 -2.49429 0)
(1.39707 -2.44899 0)
(1.45384 -2.41209 0)
(1.51777 -2.3809 0)
(1.5884 -2.35421 0)
(1.66611 -2.33187 0)
(1.75129 -2.31435 0)
(0.010465 0.380659 0)
(-0.054397 0.874433 0)
(-0.0649216 1.09251 0)
(-0.000663188 1.19162 0)
(0.134478 1.15285 0)
(0.278874 0.963728 0)
(0.398122 0.624797 0)
(0.615792 0.147683 0)
(0.816632 -0.40504 0)
(0.923858 -0.964537 0)
(1.04008 -1.60803 0)
(1.19329 -2.27504 0)
(1.28833 -2.706 0)
(1.31444 -2.78355 0)
(1.31592 -2.77085 0)
(1.31594 -2.71066 0)
(1.32341 -2.64057 0)
(1.34327 -2.58067 0)
(1.37587 -2.53434 0)
(1.41904 -2.49839 0)
(1.47058 -2.46931 0)
(1.52912 -2.44513 0)
(1.59429 -2.42524 0)
(1.66596 -2.40978 0)
(1.74444 -2.39928 0)
(0.0618859 0.337692 0)
(0.0636831 0.832094 0)
(0.0888256 1.02422 0)
(0.168204 1.07942 0)
(0.322028 1.00388 0)
(0.483538 0.78848 0)
(0.640564 0.437743 0)
(0.82558 -0.0237824 0)
(0.943874 -0.527792 0)
(1.00972 -1.08259 0)
(1.15542 -1.75334 0)
(1.32038 -2.39719 0)
(1.38949 -2.74917 0)
(1.3888 -2.78794 0)
(1.37091 -2.76467 0)
(1.35595 -2.70703 0)
(1.35397 -2.64893 0)
(1.36802 -2.60325 0)
(1.39588 -2.56912 0)
(1.43413 -2.54264 0)
(1.48036 -2.52116 0)
(1.5334 -2.50371 0)
(1.59272 -2.49031 0)
(1.65857 -2.48145 0)
(1.7311 -2.47785 0)
(0.0971282 0.213337 0)
(0.165944 0.739438 0)
(0.224846 0.916617 0)
(0.312673 0.94309 0)
(0.463146 0.842313 0)
(0.623586 0.615582 0)
(0.778676 0.270971 0)
(0.915861 -0.169991 0)
(0.979524 -0.631716 0)
(1.06166 -1.21173 0)
(1.26135 -1.91853 0)
(1.41969 -2.51107 0)
(1.45319 -2.76366 0)
(1.42949 -2.7759 0)
(1.39864 -2.74267 0)
(1.37673 -2.69397 0)
(1.37193 -2.65264 0)
(1.38389 -2.62239 0)
(1.40858 -2.59996 0)
(1.44255 -2.58223 0)
(1.48388 -2.56791 0)
(1.53169 -2.55702 0)
(1.5859 -2.55008 0)
(1.6463 -2.54775 0)
(1.71291 -2.55076 0)
(0.107065 0.036644 0)
(0.23897 0.610919 0)
(0.334724 0.798934 0)
(0.428782 0.804663 0)
(0.55826 0.682656 0)
(0.697081 0.447432 0)
(0.824785 0.105962 0)
(0.912634 -0.291001 0)
(0.958783 -0.721891 0)
(1.1065 -1.37721 0)
(1.35725 -2.10374 0)
(1.47521 -2.60085 0)
(1.47469 -2.74115 0)
(1.44002 -2.74464 0)
(1.40396 -2.7127 0)
(1.38308 -2.68012 0)
(1.38017 -2.65646 0)
(1.3919 -2.64004 0)
(1.41412 -2.62763 0)
(1.44424 -2.61763 0)
(1.48111 -2.61003 0)
(1.5243 -2.60549 0)
(1.5734 -2.60476 0)
(1.62843 -2.60852 0)
(1.68919 -2.61738 0)
(0.0820067 -0.14364 0)
(0.27059 0.433754 0)
(0.405729 0.673733 0)
(0.507709 0.678791 0)
(0.610738 0.545036 0)
(0.712767 0.303301 0)
(0.817723 -0.0278276 0)
(0.844012 -0.353964 0)
(0.918332 -0.838117 0)
(1.17051 -1.60423 0)
(1.428 -2.29125 0)
(1.48996 -2.64932 0)
(1.47173 -2.70977 0)
(1.42886 -2.70539 0)
(1.39547 -2.68561 0)
(1.38013 -2.67051 0)
(1.38053 -2.66196 0)
(1.39225 -2.6566 0)
(1.41218 -2.65236 0)
(1.43889 -2.64917 0)
(1.47183 -2.64783 0)
(1.5106 -2.64929 0)
(1.55507 -2.65431 0)
(1.60483 -2.66356 0)
(1.65965 -2.67771 0)
(0.0259905 -0.209902 0)
(0.247214 0.225305 0)
(0.420881 0.527703 0)
(0.535858 0.565179 0)
(0.617355 0.438644 0)
(0.688613 0.198903 0)
(0.738593 -0.093999 0)
(0.734411 -0.380074 0)
(0.919931 -1.04782 0)
(1.25031 -1.8801 0)
(1.46309 -2.44724 0)
(1.48007 -2.65097 0)
(1.44429 -2.67442 0)
(1.40255 -2.67051 0)
(1.37798 -2.66526 0)
(1.36988 -2.66546 0)
(1.37331 -2.66908 0)
(1.38479 -2.67198 0)
(1.40275 -2.67443 0)
(1.42665 -2.67732 0)
(1.45623 -2.6818 0)
(1.49126 -2.6888 0)
(1.5313 -2.6991 0)
(1.57619 -2.71336 0)
(1.62566 -2.73221 0)
(-0.0140135 -0.141734 0)
(0.164668 0.049225 0)
(0.36817 0.365732 0)
(0.497764 0.456304 0)
(0.567495 0.359567 0)
(0.619225 0.137591 0)
(0.606065 -0.079618 0)
(0.647445 -0.477711 0)
(0.979496 -1.37608 0)
(1.32296 -2.15054 0)
(1.43794 -2.53805 0)
(1.43203 -2.61918 0)
(1.39432 -2.63635 0)
(1.36719 -2.64326 0)
(1.35484 -2.65395 0)
(1.35324 -2.66627 0)
(1.3588 -2.67727 0)
(1.37001 -2.68635 0)
(1.38655 -2.69444 0)
(1.40834 -2.7028 0)
(1.43524 -2.71256 0)
(1.4669 -2.72459 0)