/*--------------------------------*- C++ -*----------------------------------*\
  =========                 |
  \\      /  F ield         | OpenFOAM: The Open Source CFD Toolbox
   \\    /   O peration     | Website:  https://openfoam.org
    \\  /    A nd           | Version:  13
     \\/     M anipulation  |
\*---------------------------------------------------------------------------*/
FoamFile
{
    format      ascii;
    class       volScalarField;
    location    "27";
    object      p;
}
// * * * * * * * * * * * * * * * * * * * * * * * * * * * * * * * * * * * * * //

dimensions      [0 2 -2 0 0 0 0];

internalField   nonuniform List<scalar> 
6440
(
155.805
155.81
155.815
155.814
155.804
155.788
155.77
155.752
155.735
155.721
155.712
155.708
155.706
155.706
155.708
155.712
155.712
155.707
155.698
155.691
155.689
155.692
155.698
155.703
155.705
155.795
155.8
155.804
155.801
155.79
155.77
155.748
155.727
155.712
155.703
155.699
155.699
155.7
155.699
155.7
155.7
155.696
155.686
155.674
155.664
155.664
155.671
155.681
155.693
155.702
155.78
155.781
155.775
155.759
155.734
155.703
155.671
155.647
155.633
155.632
155.641
155.655
155.669
155.678
155.68
155.677
155.67
155.659
155.649
155.645
155.649
155.661
155.677
155.694
155.708
155.76
155.747
155.703
155.643
155.58
155.521
155.475
155.449
155.446
155.465
155.503
155.548
155.591
155.623
155.639
155.645
155.646
155.644
155.642
155.644
155.655
155.673
155.694
155.712
155.727
155.716
155.671
155.571
155.452
155.334
155.239
155.181
155.161
155.183
155.242
155.326
155.414
155.498
155.562
155.6
155.621
155.635
155.645
155.653
155.663
155.679
155.701
155.724
155.742
155.755
155.649
155.573
155.442
155.298
155.166
155.058
154.988
154.964
154.988
155.072
155.196
155.329
155.445
155.531
155.587
155.621
155.648
155.671
155.687
155.701
155.719
155.74
155.76
155.775
155.783
155.621
155.542
155.408
155.264
155.131
155.023
154.954
154.936
154.956
155.045
155.181
155.327
155.453
155.541
155.598
155.637
155.674
155.705
155.729
155.748
155.765
155.78
155.794
155.803
155.804
155.681
155.6
155.473
155.332
155.198
155.086
155.008
154.968
154.997
155.086
155.209
155.343
155.47
155.567
155.626
155.665
155.702
155.736
155.762
155.782
155.798
155.809
155.815
155.816
155.813
155.82
155.733
155.612
155.469
155.333
155.22
155.136
155.097
155.107
155.158
155.247
155.367
155.49
155.588
155.651
155.693
155.727
155.76
155.787
155.808
155.822
155.826
155.821
155.816
155.815
156.001
155.912
155.784
155.63
155.482
155.356
155.261
155.202
155.185
155.215
155.287
155.384
155.482
155.562
155.62
155.665
155.707
155.751
155.794
155.825
155.838
155.834
155.818
155.809
155.811
156.169
156.077
155.94
155.777
155.615
155.47
155.352
155.268
155.222
155.218
155.25
155.3
155.349
155.393
155.437
155.489
155.557
155.643
155.732
155.799
155.828
155.823
155.804
155.792
155.794
156.263
156.175
156.038
155.873
155.7
155.535
155.391
155.271
155.177
155.109
155.058
155.022
155.002
154.999
155.026
155.093
155.206
155.368
155.55
155.7
155.777
155.79
155.781
155.775
155.778
156.265
156.187
156.052
155.882
155.694
155.507
155.33
155.164
155.008
154.861
154.724
154.605
154.515
154.465
154.473
154.552
154.711
154.95
155.231
155.49
155.654
155.717
155.749
155.774
155.782
156.184
156.103
155.963
155.783
155.581
155.375
155.168
154.959
154.745
154.527
154.316
154.13
153.994
153.927
153.94
154.036
154.223
154.495
154.828
155.162
155.398
155.523
155.651
155.768
155.807
155.996
155.91
155.769
155.587
155.379
155.158
154.929
154.685
154.424
154.151
153.885
153.658
153.505
153.448
153.482
153.604
153.813
154.104
154.458
154.821
155.087
155.245
155.467
155.765
155.872
155.709
155.629
155.501
155.328
155.12
154.894
154.651
154.384
154.091
153.784
153.488
153.245
153.098
153.065
153.123
153.273
153.509
153.82
154.188
154.575
154.899
155.106
155.386
155.853
156.033
155.382
155.316
155.207
155.047
154.848
154.622
154.375
154.097
153.79
153.464
153.158
152.911
152.784
152.773
152.864
153.046
153.321
153.661
154.055
154.472
154.867
155.18
155.548
156.123
156.343
155.077
155.025
154.932
154.787
154.595
154.377
154.133
153.857
153.545
153.224
152.916
152.686
152.576
152.607
152.725
152.945
153.243
153.611
154.02
154.458
154.888
155.29
155.774
156.426
156.689
154.834
154.791
154.708
154.57
154.389
154.182
153.951
153.688
153.395
153.087
152.804
152.59
152.512
152.556
152.718
152.96
153.269
153.638
154.053
154.486
154.912
155.319
155.783
156.361
156.615
154.659
154.619
154.539
154.409
154.238
154.045
153.835
153.599
153.336
153.058
152.799
152.609
152.528
152.585
152.806
153.091
153.387
153.726
154.118
154.532
154.93
155.3
155.676
155.965
156.096
154.54
154.5
154.425
154.306
154.153
153.982
153.802
153.605
153.385
153.149
152.924
152.748
152.671
152.767
153.027
153.314
153.567
153.841
154.179
154.55
154.912
155.255
155.563
155.751
155.766
154.461
154.425
154.356
154.253
154.12
153.977
153.832
153.685
153.526
153.358
153.193
153.065
153.01
153.092
153.308
153.537
153.73
153.939
154.213
154.531
154.846
155.133
155.377
155.541
155.627
154.411
154.38
154.32
154.233
154.126
154.013
153.907
153.809
153.715
153.621
153.529
153.45
153.418
153.465
153.603
153.766
153.912
154.07
154.283
154.536
154.793
155.026
155.214
155.338
155.391
154.379
154.354
154.304
154.238
154.157
154.077
154.006
153.949
153.905
153.866
153.827
153.792
153.768
153.782
153.853
153.962
154.073
154.194
154.35
154.537
154.734
154.913
155.06
155.168
155.231
154.356
154.337
154.3
154.254
154.202
154.151
154.111
154.086
154.073
154.068
154.061
154.047
154.035
154.038
154.074
154.143
154.223
154.311
154.417
154.544
154.682
154.81
154.918
154.998
155.046
154.336
154.324
154.3
154.274
154.245
154.222
154.208
154.207
154.216
154.231
154.241
154.25
154.252
154.254
154.268
154.301
154.346
154.397
154.461
154.54
154.627
154.711
154.786
154.846
154.885
154.317
154.312
154.299
154.287
154.28
154.278
154.285
154.302
154.327
154.357
154.387
154.408
154.421
154.415
154.406
154.409
154.422
154.443
154.474
154.517
154.566
154.616
154.664
154.701
154.726
154.302
154.299
154.293
154.294
154.298
154.31
154.331
154.36
154.399
154.441
154.478
154.508
154.511
154.49
154.467
154.453
154.447
154.449
154.458
154.476
154.501
154.528
154.553
154.572
154.58
154.288
154.285
154.284
154.287
154.299
154.316
154.341
154.376
154.42
154.468
154.504
154.524
154.513
154.489
154.466
154.447
154.434
154.425
154.423
154.427
154.436
154.446
154.454
154.455
154.447
154.273
154.271
154.268
154.271
154.279
154.292
154.313
154.346
154.387
154.434
154.463
154.475
154.458
154.441
154.424
154.408
154.394
154.383
154.375
154.371
154.368
154.364
154.356
154.342
154.319
154.255
154.253
154.249
154.244
154.241
154.241
154.249
154.271
154.305
154.345
154.374
154.381
154.369
154.36
154.352
154.344
154.335
154.326
154.315
154.304
154.29
154.273
154.252
154.224
154.187
154.237
154.235
154.228
154.211
154.189
154.167
154.153
154.156
154.174
154.207
154.246
154.255
154.247
154.247
154.252
154.256
154.255
154.249
154.237
154.22
154.198
154.171
154.139
154.099
154.051
154.223
154.218
154.205
154.176
154.13
154.076
154.026
153.988
153.978
154.017
154.067
154.079
154.081
154.098
154.122
154.143
154.154
154.153
154.142
154.122
154.095
154.06
154.019
153.969
153.907
154.219
154.209
154.186
154.139
154.069
153.976
153.877
153.783
153.741
153.779
153.83
153.851
153.875
153.918
153.968
154.009
154.034
154.042
154.035
154.014
153.983
153.942
153.892
153.831
153.758
154.227
154.21
154.174
154.113
154.019
153.9
153.751
153.592
153.486
153.498
153.549
153.59
153.642
153.718
153.8
153.865
153.906
153.923
153.92
153.899
153.865
153.818
153.759
153.688
153.603
154.254
154.227
154.178
154.102
154.006
153.869
153.662
153.399
153.216
153.207
153.263
153.324
153.411
153.522
153.633
153.72
153.776
153.802
153.801
153.78
153.742
153.69
153.623
153.542
153.445
154.305
154.268
154.203
154.121
154.019
153.856
153.57
153.206
152.987
152.969
153.017
153.1
153.212
153.351
153.485
153.588
153.654
153.684
153.685
153.662
153.621
153.562
153.488
153.397
153.289
154.39
154.343
154.258
154.159
154.04
153.836
153.473
153.07
152.861
152.822
152.86
152.946
153.076
153.23
153.371
153.479
153.547
153.578
153.577
153.55
153.503
153.439
153.356
153.257
153.138
154.499
154.449
154.34
154.221
154.072
153.828
153.436
153.071
152.87
152.802
152.812
152.894
153.021
153.171
153.302
153.401
153.465
153.489
153.481
153.449
153.395
153.323
153.232
153.123
152.994
154.602
154.559
154.446
154.309
154.143
153.886
153.534
153.211
153.007
152.911
152.886
152.945
153.053
153.178
153.281
153.362
153.411
153.421
153.403
153.36
153.298
153.217
153.117
152.999
152.859
154.681
154.651
154.562
154.43
154.262
154.043
153.753
153.441
153.239
153.115
153.066
153.096
153.164
153.245
153.311
153.366
153.386
153.376
153.342
153.288
153.215
153.124
153.015
152.886
152.738
154.729
154.727
154.679
154.573
154.435
154.259
154.007
153.734
153.536
153.405
153.339
153.319
153.334
153.36
153.388
153.402
153.386
153.351
153.3
153.232
153.146
153.044
152.925
152.788
152.63
154.77
154.797
154.795
154.73
154.627
154.481
154.268
154.057
153.895
153.77
153.662
153.581
153.537
153.503
153.482
153.45
153.402
153.344
153.274
153.19
153.092
152.979
152.849
152.703
152.537
154.829
154.871
154.9
154.878
154.8
154.689
154.539
154.399
154.275
154.141
153.984
153.846
153.743
153.64
153.575
153.506
153.431
153.35
153.261
153.162
153.051
152.926
152.787
152.633
152.459
154.896
154.933
154.968
154.98
154.945
154.879
154.799
154.714
154.608
154.461
154.266
154.085
153.924
153.769
153.668
153.568
153.467
153.365
153.259
153.145
153.021
152.886
152.738
152.576
152.397
154.947
154.973
155.011
155.044
155.048
155.035
155.01
154.957
154.872
154.715
154.49
154.271
154.062
153.894
153.756
153.628
153.505
153.385
153.263
153.136
153.001
152.857
152.701
152.532
152.348
154.997
155.009
155.046
155.082
155.12
155.146
155.152
155.126
155.07
154.897
154.645
154.4
154.173
153.988
153.827
153.68
153.541
153.406
153.271
153.133
152.989
152.837
152.675
152.5
152.313
155.045
155.05
155.071
155.105
155.156
155.208
155.236
155.247
155.201
154.998
154.734
154.482
154.247
154.054
153.882
153.724
153.573
153.427
153.282
153.135
152.984
152.825
152.658
152.48
152.289
155.083
155.083
155.092
155.117
155.164
155.225
155.271
155.316
155.246
155.027
154.759
154.509
154.295
154.102
153.924
153.758
153.6
153.447
153.294
153.141
152.983
152.82
152.649
152.468
152.276
155.114
155.105
155.106
155.12
155.152
155.206
155.27
155.319
155.214
154.989
154.754
154.526
154.321
154.131
153.952
153.784
153.621
153.463
153.306
153.148
152.987
152.82
152.646
152.465
152.272
155.135
155.116
155.111
155.115
155.135
155.188
155.27
155.276
155.141
154.933
154.728
154.524
154.33
154.145
153.969
153.801
153.638
153.477
153.317
153.157
152.993
152.825
152.65
152.468
152.277
155.145
155.113
155.104
155.109
155.13
155.182
155.256
155.218
155.063
154.885
154.697
154.51
154.326
154.149
153.978
153.812
153.649
153.488
153.328
153.166
153.001
152.833
152.658
152.478
152.288
155.15
155.111
155.111
155.124
155.155
155.212
155.236
155.152
155.001
154.838
154.663
154.488
154.316
154.147
153.981
153.818
153.657
153.497
153.337
153.176
153.011
152.843
152.67
152.491
152.305
155.158
155.124
155.145
155.181
155.223
155.269
155.236
155.106
154.955
154.794
154.629
154.465
154.302
154.139
153.979
153.819
153.661
153.504
153.345
153.185
153.022
152.856
152.685
152.509
152.326
155.158
155.132
155.178
155.242
155.296
155.304
155.205
155.058
154.908
154.753
154.597
154.44
154.284
154.128
153.973
153.818
153.663
153.508
153.353
153.195
153.034
152.87
152.703
152.53
152.351
155.133
155.107
155.161
155.243
155.31
155.279
155.155
155.007
154.859
154.711
154.563
154.414
154.265
154.115
153.964
153.814
153.663
153.512
153.359
153.204
153.047
152.886
152.722
152.553
152.379
155.084
155.047
155.091
155.181
155.241
155.193
155.08
154.949
154.807
154.667
154.527
154.386
154.243
154.099
153.954
153.808
153.662
153.514
153.365
153.213
153.059
152.902
152.742
152.578
152.409
155.018
154.978
155.006
155.086
155.14
155.106
154.997
154.873
154.749
154.621
154.49
154.356
154.22
154.081
153.942
153.801
153.659
153.515
153.37
153.222
153.072
152.919
152.763
152.604
152.441
154.954
154.923
154.94
155.001
155.049
155.008
154.914
154.806
154.693
154.575
154.452
154.325
154.195
154.063
153.928
153.792
153.655
153.515
153.374
153.231
153.085
152.936
152.785
152.631
152.473
154.917
154.895
154.902
154.945
154.977
154.914
154.833
154.743
154.64
154.53
154.415
154.295
154.17
154.043
153.914
153.783
153.65
153.515
153.378
153.239
153.097
152.953
152.807
152.658
152.506
154.908
154.89
154.893
154.916
154.91
154.842
154.772
154.688
154.592
154.489
154.379
154.264
154.146
154.024
153.9
153.773
153.644
153.514
153.381
153.246
153.109
152.97
152.829
152.685
152.539
154.913
154.9
154.9
154.901
154.855
154.794
154.723
154.64
154.549
154.45
154.345
154.236
154.122
154.005
153.885
153.763
153.638
153.512
153.384
153.254
153.121
152.987
152.851
152.713
152.572
154.92
154.915
154.909
154.888
154.814
154.756
154.682
154.599
154.51
154.415
154.314
154.208
154.098
153.986
153.87
153.752
153.632
153.51
153.386
153.261
153.133
153.003
152.872
152.739
152.604
154.923
154.927
154.915
154.866
154.784
154.721
154.645
154.563
154.475
154.382
154.284
154.182
154.076
153.967
153.855
153.742
153.626
153.508
153.388
153.267
153.144
153.019
152.893
152.765
152.636
154.921
154.93
154.914
154.842
154.766
154.692
154.612
154.53
154.443
154.352
154.256
154.157
154.054
153.949
153.841
153.731
153.619
153.505
153.39
153.273
153.154
153.034
152.913
152.79
152.667
154.916
154.927
154.907
154.815
154.748
154.666
154.582
154.499
154.413
154.323
154.229
154.133
154.033
153.931
153.826
153.72
153.612
153.502
153.391
153.278
153.164
153.049
152.932
152.815
152.696
154.91
154.919
154.887
154.783
154.717
154.637
154.553
154.469
154.384
154.295
154.204
154.109
154.012
153.913
153.812
153.709
153.605
153.499
153.392
153.283
153.173
153.063
152.951
152.838
152.725
154.9
154.908
154.854
154.757
154.685
154.607
154.525
154.441
154.356
154.268
154.178
154.086
153.992
153.896
153.798
153.698
153.598
153.495
153.392
153.288
153.182
153.075
152.968
152.86
152.752
154.883
154.892
154.82
154.74
154.658
154.577
154.496
154.412
154.328
154.241
154.153
154.063
153.971
153.878
153.783
153.687
153.59
153.491
153.392
153.291
153.19
153.087
152.985
152.881
152.778
154.866
154.876
154.786
154.718
154.631
154.548
154.467
154.384
154.3
154.215
154.128
154.04
153.951
153.86
153.769
153.676
153.582
153.487
153.391
153.294
153.197
153.099
153
152.901
152.802
154.856
154.862
154.75
154.687
154.602
154.517
154.436
154.354
154.271
154.188
154.103
154.017
153.93
153.843
153.754
153.664
153.573
153.482
153.39
153.297
153.203
153.109
153.015
152.92
152.825
154.854
154.844
154.72
154.655
154.57
154.485
154.404
154.323
154.242
154.16
154.077
153.994
153.909
153.824
153.738
153.652
153.564
153.476
153.388
153.298
153.209
153.118
153.028
152.938
152.847
154.848
154.818
154.694
154.619
154.535
154.451
154.371
154.291
154.211
154.131
154.051
153.97
153.888
153.806
153.723
153.639
153.555
153.47
153.385
153.299
153.213
153.127
153.041
152.954
152.868
154.826
154.779
154.664
154.58
154.497
154.414
154.335
154.257
154.179
154.101
154.023
153.945
153.866
153.787
153.707
153.626
153.545
153.464
153.382
153.3
153.217
153.135
153.052
152.969
152.887
154.789
154.727
154.624
154.536
154.454
154.374
154.297
154.221
154.145
154.07
153.995
153.919
153.843
153.767
153.69
153.613
153.535
153.457
153.378
153.299
153.22
153.141
153.062
152.983
152.905
154.734
154.661
154.571
154.485
154.406
154.33
154.256
154.183
154.11
154.038
153.966
153.893
153.82
153.747
153.673
153.599
153.524
153.449
153.374
153.298
153.223
153.147
153.071
152.996
152.921
154.659
154.583
154.507
154.428
154.355
154.282
154.212
154.143
154.074
154.005
153.936
153.866
153.796
153.726
153.655
153.584
153.513
153.441
153.369
153.297
153.224
153.152
153.08
153.008
152.936
154.571
154.501
154.438
154.367
154.3
154.233
154.167
154.102
154.037
153.971
153.905
153.839
153.772
153.705
153.638
153.57
153.501
153.433
153.364
153.295
153.225
153.156
153.087
153.018
152.95
154.478
154.42
154.366
154.304
154.244
154.182
154.122
154.06
153.999
153.937
153.875
153.812
153.748
153.684
153.62
153.555
153.49
153.424
153.358
153.292
153.226
153.16
153.094
153.028
152.963
154.388
154.341
154.295
154.241
154.188
154.132
154.076
154.019
153.961
153.903
153.844
153.785
153.724
153.663
153.602
153.54
153.478
153.415
153.352
153.289
153.226
153.162
153.099
153.037
152.974
154.304
154.265
154.227
154.18
154.132
154.082
154.03
153.978
153.924
153.87
153.814
153.758
153.701
153.643
153.584
153.525
153.466
153.406
153.346
153.285
153.225
153.165
153.104
153.045
152.985
154.225
154.194
154.162
154.121
154.079
154.033
153.986
153.937
153.888
153.837
153.784
153.731
153.677
153.622
153.567
153.511
153.454
153.397
153.339
153.282
153.224
153.166
153.109
153.051
152.995
154.154
154.127
154.101
154.065
154.027
153.986
153.943
153.898
153.852
153.804
153.755
153.705
153.654
153.602
153.549
153.496
153.442
153.388
153.333
153.278
153.223
153.167
153.112
153.058
153.003
154.088
154.066
154.044
154.012
153.979
153.941
153.902
153.861
153.818
153.773
153.727
153.68
153.632
153.582
153.532
153.482
153.43
153.378
153.326
153.273
153.221
153.168
153.115
153.063
153.011
154.029
154.011
153.991
153.963
153.933
153.899
153.863
153.825
153.785
153.743
153.7
153.656
153.61
153.563
153.516
153.467
153.418
153.369
153.319
153.269
153.218
153.168
153.117
153.067
153.017
153.976
153.96
153.943
153.918
153.891
153.86
153.827
153.792
153.754
153.715
153.675
153.633
153.59
153.545
153.5
153.454
153.407
153.36
153.312
153.264
153.216
153.168
153.119
153.071
153.023
153.929
153.914
153.9
153.877
153.853
153.824
153.794
153.761
153.726
153.69
153.651
153.612
153.571
153.529
153.485
153.442
153.397
153.352
153.306
153.26
153.214
153.167
153.121
153.075
153.029
153.886
153.874
153.861
153.84
153.818
153.792
153.764
153.733
153.7
153.666
153.63
153.592
153.553
153.513
153.472
153.43
153.387
153.344
153.3
153.256
153.211
153.167
153.122
153.078
153.034
153.849
153.838
153.826
153.807
153.787
153.763
153.736
153.707
153.677
153.644
153.61
153.574
153.537
153.499
153.46
153.419
153.378
153.337
153.295
153.252
153.209
153.167
153.124
153.081
153.039
153.815
153.806
153.796
153.778
153.759
153.736
153.712
153.684
153.655
153.625
153.592
153.558
153.522
153.486
153.448
153.409
153.37
153.33
153.289
153.249
153.207
153.166
153.125
153.084
153.043
153.786
153.777
153.769
153.752
153.734
153.712
153.689
153.663
153.635
153.606
153.575
153.543
153.509
153.473
153.437
153.4
153.362
153.323
153.284
153.245
153.205
153.165
153.125
153.085
153.046
153.762
153.753
153.745
153.729
153.712
153.691
153.668
153.644
153.617
153.589
153.559
153.528
153.495
153.462
153.427
153.391
153.354
153.317
153.279
153.241
153.203
153.164
153.125
153.086
153.048
153.741
153.733
153.725
153.709
153.693
153.672
153.65
153.626
153.6
153.573
153.545
153.515
153.483
153.451
153.417
153.382
153.347
153.311
153.274
153.237
153.2
153.162
153.124
153.087
153.05
153.726
153.717
153.709
153.693
153.676
153.656
153.634
153.611
153.586
153.56
153.532
153.503
153.472
153.441
153.408
153.374
153.34
153.305
153.269
153.233
153.197
153.16
153.123
153.087
153.051
153.715
153.706
153.698
153.68
153.664
153.644
153.622
153.599
153.574
153.549
153.521
153.493
153.463
153.432
153.4
153.368
153.334
153.3
153.265
153.23
153.194
153.158
153.122
153.087
153.051
153.71
153.699
153.691
153.673
153.656
153.635
153.613
153.59
153.566
153.54
153.513
153.485
153.456
153.426
153.394
153.362
153.329
153.296
153.262
153.227
153.192
153.157
153.122
153.087
153.052
153.708
153.697
153.689
153.67
153.652
153.631
153.608
153.585
153.56
153.535
153.508
153.48
153.451
153.421
153.39
153.358
153.326
153.293
153.259
153.225
153.191
153.156
153.122
153.087
153.054
153.716
153.7
153.694
153.673
153.652
153.63
153.606
153.582
153.557
153.531
153.504
153.476
153.448
153.418
153.387
153.356
153.324
153.291
153.258
153.224
153.19
153.156
153.122
153.088
153.054
153.754
153.72
153.704
153.679
153.654
153.63
153.606
153.581
153.555
153.529
153.502
153.474
153.446
153.416
153.386
153.354
153.322
153.29
153.257
153.223
153.19
153.156
153.122
153.088
153.055
153.831
153.752
153.711
153.682
153.655
153.63
153.606
153.581
153.555
153.529
153.502
153.474
153.445
153.415
153.385
153.354
153.322
153.289
153.256
153.223
153.189
153.156
153.122
153.089
153.055
155.478
155.477
155.475
155.473
155.47
155.466
155.462
155.458
155.453
155.449
155.446
155.445
155.446
155.449
155.455
155.463
155.471
155.474
155.469
155.458
155.444
155.433
155.427
155.424
155.424
155.482
155.48
155.479
155.477
155.474
155.47
155.465
155.458
155.45
155.441
155.432
155.424
155.419
155.42
155.426
155.436
155.447
155.455
155.456
155.449
155.438
155.428
155.422
155.42
155.42
155.487
155.485
155.484
155.481
155.478
155.472
155.462
155.449
155.431
155.411
155.391
155.373
155.361
155.356
155.359
155.369
155.383
155.399
155.413
155.421
155.423
155.42
155.417
155.415
155.413
155.493
155.491
155.489
155.485
155.48
155.47
155.453
155.429
155.398
155.362
155.325
155.292
155.267
155.256
155.255
155.264
155.282
155.305
155.332
155.359
155.382
155.399
155.408
155.408
155.404
155.501
155.499
155.495
155.49
155.481
155.466
155.441
155.403
155.353
155.297
155.24
155.191
155.156
155.139
155.138
155.148
155.169
155.199
155.236
155.276
155.317
155.355
155.385
155.396
155.393
155.51
155.508
155.503
155.496
155.485
155.464
155.429
155.376
155.307
155.23
155.156
155.093
155.049
155.026
155.023
155.037
155.065
155.104
155.149
155.197
155.247
155.297
155.345
155.378
155.381
155.521
155.518
155.512
155.503
155.489
155.465
155.421
155.354
155.265
155.169
155.077
155.003
154.95
154.922
154.917
154.934
154.969
155.016
155.07
155.125
155.18
155.235
155.292
155.342
155.36
155.534
155.53
155.523
155.512
155.495
155.468
155.418
155.339
155.235
155.121
155.014
154.927
154.868
154.834
154.824
154.839
154.877
154.932
154.994
155.057
155.117
155.175
155.232
155.288
155.32
155.545
155.543
155.536
155.523
155.504
155.474
155.42
155.335
155.223
155.098
154.979
154.882
154.814
154.774
154.757
154.764
154.8
154.861
154.932
155.002
155.066
155.126
155.184
155.239
155.271
155.554
155.551
155.545
155.533
155.512
155.48
155.427
155.343
155.23
155.099
154.973
154.869
154.795
154.749
154.729
154.731
154.762
154.825
154.901
154.975
155.041
155.099
155.154
155.204
155.235
155.559
155.553
155.546
155.536
155.515
155.482
155.432
155.354
155.248
155.124
154.998
154.89
154.81
154.759
154.734
154.735
154.767
154.83
154.908
154.981
155.044
155.099
155.149
155.192
155.222
155.563
155.55
155.54
155.529
155.51
155.479
155.433
155.364
155.271
155.16
155.045
154.94
154.858
154.803
154.777
154.78
154.812
154.873
154.945
155.013
155.072
155.123
155.17
155.209
155.237
155.568
155.546
155.531
155.518
155.5
155.472
155.429
155.368
155.288
155.192
155.092
154.997
154.919
154.867
154.843
154.848
154.88
154.935
154.999
155.06
155.116
155.168
155.216
155.255
155.282
155.574
155.542
155.523
155.509
155.492
155.465
155.423
155.366
155.294
155.211
155.124
155.042
154.974
154.928
154.908
154.915
154.944
154.993
155.05
155.111
155.172
155.233
155.289
155.332
155.357
155.584
155.541
155.519
155.506
155.488
155.46
155.419
155.362
155.293
155.217
155.14
155.07
155.013
154.973
154.957
154.964
154.99
155.036
155.094
155.163
155.24
155.319
155.389
155.441
155.464
155.597
155.543
155.518
155.509
155.493
155.464
155.419
155.359
155.289
155.215
155.145
155.083
155.034
155
154.986
154.994
155.022
155.07
155.138
155.223
155.32
155.419
155.506
155.569
155.596
155.612
155.544
155.516
155.516
155.506
155.48
155.434
155.368
155.29
155.213
155.144
155.086
155.041
155.012
155.001
155.011
155.045
155.102
155.182
155.283
155.396
155.511
155.612
155.687
155.722
155.639
155.549
155.512
155.521
155.525
155.509
155.465
155.392
155.307
155.22
155.144
155.083
155.037
155.009
155.002
155.018
155.058
155.124
155.215
155.326
155.45
155.575
155.687
155.771
155.813
155.681
155.56
155.507
155.519
155.537
155.537
155.504
155.431
155.332
155.23
155.141
155.07
155.021
154.993
154.988
155.009
155.055
155.128
155.224
155.343
155.473
155.606
155.727
155.819
155.867
155.708
155.561
155.501
155.514
155.537
155.547
155.53
155.464
155.357
155.238
155.132
155.049
154.99
154.958
154.952
154.972
155.019
155.094
155.196
155.318
155.456
155.598
155.728
155.831
155.886
155.632
155.489
155.463
155.5
155.523
155.522
155.498
155.432
155.321
155.195
155.079
154.986
154.922
154.885
154.877
154.896
154.943
155.02
155.123
155.25
155.392
155.539
155.677
155.788
155.852
155.503
155.383
155.392
155.442
155.453
155.427
155.377
155.301
155.196
155.077
154.964
154.87
154.801
154.76
154.747
154.763
154.808
154.884
154.988
155.113
155.256
155.406
155.547
155.662
155.733
155.344
155.298
155.317
155.352
155.35
155.307
155.236
155.144
155.036
154.92
154.808
154.709
154.633
154.582
154.558
154.564
154.599
154.664
154.756
154.873
155.008
155.151
155.288
155.398
155.461
155.234
155.215
155.212
155.22
155.206
155.156
155.075
154.972
154.855
154.732
154.611
154.502
154.41
154.34
154.296
154.279
154.291
154.331
154.399
154.488
154.598
154.719
154.835
154.929
154.994
155.063
155.06
155.052
155.042
155.014
154.956
154.868
154.757
154.632
154.5
154.368
154.241
154.127
154.029
153.952
153.897
153.867
153.861
153.876
153.911
153.963
154.024
154.082
154.118
154.112
154.901
154.895
154.877
154.848
154.802
154.731
154.634
154.516
154.383
154.239
154.088
153.937
153.788
153.648
153.52
153.406
153.306
153.221
153.147
153.082
153.019
152.954
152.884
152.802
152.764
154.731
154.718
154.687
154.641
154.577
154.492
154.385
154.259
154.115
153.955
153.78
153.592
153.397
153.198
152.997
152.796
152.595
152.387
152.169
151.93
151.659
151.339
150.959
150.522
149.985
154.573
154.547
154.501
154.438
154.357
154.258
154.141
154.005
153.846
153.662
153.45
153.214
152.956
152.678
152.382
152.065
151.721
151.339
150.902
150.389
149.76
148.981
147.988
146.869
145.452
154.425
154.386
154.327
154.249
154.155
154.046
153.917
153.765
153.58
153.358
153.097
152.796
152.46
152.086
151.671
151.208
150.682
150.068
149.327
148.404
147.2
145.6
143.262
140.187
134.399
154.283
154.231
154.162
154.075
153.972
153.85
153.704
153.524
153.301
153.028
152.704
152.328
151.9
151.417
150.867
150.233
149.487
148.587
147.453
145.98
143.938
141.122
136.478
130.933
112.506
154.139
154.076
153.998
153.902
153.786
153.645
153.472
153.253
152.981
152.65
152.259
151.805
151.285
150.687
149.993
149.173
148.182
146.95
145.357
143.218
140.072
135.431
126.09
110.289
51.9991
153.99
153.915
153.824
153.713
153.577
153.409
153.199
152.937
152.616
152.231
151.779
151.253
150.643
149.931
149.091
148.08
146.835
145.261
143.197
140.395
136.286
130.133
119.388
101.848
72.1244
153.833
153.744
153.634
153.502
153.34
153.141
152.895
152.595
152.232
151.801
151.295
150.7
150.003
149.181
148.196
146.999
145.512
143.621
141.148
137.818
133.164
126.498
116.837
102.407
84.8817
153.67
153.563
153.434
153.279
153.092
152.864
152.588
152.254
151.855
151.382
150.822
150.163
149.383
148.455
147.335
145.966
144.26
142.094
139.285
135.564
130.535
123.63
114.16
100.899
83.9149
153.5
153.377
153.23
153.055
152.844
152.591
152.287
151.923
151.49
150.976
150.368
149.647
148.792
147.768
146.529
145.009
143.116
140.719
137.636
133.605
128.266
121.12
111.578
98.8451
82.7364
153.33
153.191
153.027
152.832
152.6
152.323
151.994
151.603
151.138
150.588
149.937
149.165
148.245
147.141
145.802
144.158
142.111
139.529
136.227
131.95
126.356
118.995
109.361
96.868
81.3328
153.161
153.008
152.828
152.615
152.364
152.066
151.715
151.3
150.808
150.228
149.542
148.727
147.757
146.59
145.174
143.434
141.272
138.55
135.082
130.611
124.794
117.178
107.266
94.4406
78.5965
152.997
152.831
152.636
152.408
152.14
151.825
151.455
151.02
150.507
149.904
149.191
148.346
147.339
146.128
144.66
142.858
140.619
137.806
134.223
129.608
123.596
115.699
105.372
91.7352
74.8334
152.842
152.664
152.456
152.214
151.932
151.602
151.218
150.768
150.24
149.62
148.89
148.027
146.999
145.767
144.273
142.444
140.174
137.322
133.675
128.97
122.754
114.54
103.566
88.6061
69.9046
152.697
152.509
152.29
152.037
151.743
151.403
151.007
150.547
150.01
149.382
148.645
147.776
146.745
145.512
144.024
142.207
139.956
137.131
133.506
128.792
122.394
113.802
101.357
84.14
60.8106
152.566
152.368
152.141
151.878
151.576
151.228
150.826
150.36
149.82
149.191
148.457
147.595
146.578
145.368
143.915
142.151
139.979
137.266
133.796
129.275
123.039
114.45
100.48
80.6508
43.8297
152.45
152.244
152.009
151.74
151.432
151.08
150.675
150.209
149.672
149.05
148.327
147.485
146.497
145.33
143.94
142.267
140.229
137.713
134.545
130.473
125.007
117.55
105.51
87.9004
39.3458
152.35
152.138
151.897
151.623
151.312
150.959
150.555
150.093
149.564
148.956
148.254
147.441
146.496
145.389
144.084
142.532
140.669
138.408
135.627
132.155
127.722
122.003
114.213
104.718
85.7597
152.266
152.049
151.804
151.528
151.216
150.864
150.465
150.012
149.496
148.907
148.232
147.458
146.565
145.531
144.326
142.913
141.246
139.266
136.897
134.037
130.562
126.329
121.146
115.044
107.511
152.198
151.977
151.73
151.454
151.144
150.796
150.405
149.964
149.465
148.9
148.258
147.528
146.695
145.74
144.643
143.377
141.911
140.209
138.228
135.927
133.263
130.227
126.874
123.478
120.593
152.146
151.922
151.675
151.4
151.094
150.753
150.372
149.945
149.467
148.929
148.324
147.642
146.872
146.001
145.013
143.892
142.618
141.172
139.539
137.704
135.674
133.483
131.234
129.154
127.615
152.108
151.883
151.637
151.365
151.065
150.732
150.364
149.954
149.498
148.99
148.424
147.791
147.086
146.297
145.416
144.431
143.334
142.116
140.776
139.32
137.77
136.18
134.649
133.35
132.506
152.083
151.859
151.615
151.347
151.054
150.732
150.377
149.986
149.554
149.077
148.55
147.969
147.326
146.617
145.835
144.975
144.035
143.013
141.916
140.757
139.566
138.391
137.314
136.447
135.919
152.07
151.848
151.607
151.346
151.061
150.75
150.41
150.039
149.632
149.186
148.699
148.165
147.583
146.948
146.257
145.51
144.705
143.849
142.948
142.022
141.097
140.214
139.435