/*--------------------------------*- C++ -*----------------------------------*\
  =========                 |
  \\      /  F ield         | OpenFOAM: The Open Source CFD Toolbox
   \\    /   O peration     | Website:  https://openfoam.org
    \\  /    A nd           | Version:  13
     \\/     M anipulation  |
\*---------------------------------------------------------------------------*/
FoamFile
{
    format      ascii;
    class       volScalarField;
    location    "27";
    object      p;
}
// * * * * * * * * * * * * * * * * * * * * * * * * * * * * * * * * * * * * * //

dimensions      [0 2 -2 0 0 0 0];

internalField   nonuniform List<scalar> 
6440
(
7.6795e-05
7.65945e-05
7.61588e-05
7.55018e-05
7.46308e-05
7.35826e-05
7.24181e-05
7.12003e-05
6.99964e-05
6.88796e-05
6.79242e-05
6.7201e-05
6.67729e-05
6.66896e-05
6.69796e-05
6.76355e-05
6.86574e-05
7.00182e-05
7.16309e-05
7.34314e-05
7.53726e-05
7.74029e-05
7.94368e-05
8.14346e-05
8.31605e-05
7.7921e-05
7.77329e-05
7.73252e-05
7.66997e-05
7.58687e-05
7.48659e-05
7.37313e-05
7.25212e-05
7.12942e-05
7.01163e-05
6.90591e-05
6.81972e-05
6.76049e-05
6.73518e-05
6.74964e-05
6.8078e-05
6.91095e-05
7.05688e-05
7.2426e-05
7.46749e-05
7.72605e-05
8.01283e-05
8.31494e-05
8.62018e-05
8.89787e-05
7.96508e-05
7.9434e-05
7.89973e-05
7.83325e-05
7.74522e-05
7.63866e-05
7.51609e-05
7.38315e-05
7.24587e-05
7.11123e-05
6.98712e-05
6.88206e-05
6.80494e-05
6.76456e-05
6.76874e-05
6.82335e-05
6.93162e-05
7.09535e-05
7.31682e-05
7.59724e-05
7.9282e-05
8.30168e-05
8.69978e-05
9.09682e-05
9.44634e-05
8.18767e-05
8.16135e-05
8.1112e-05
8.03588e-05
7.93683e-05
7.81729e-05
7.68051e-05
7.5298e-05
7.37261e-05
7.21668e-05
7.07043e-05
6.9433e-05
6.84537e-05
6.78699e-05
6.77785e-05
6.82593e-05
6.93799e-05
7.11857e-05
7.3721e-05
7.70351e-05
8.1007e-05
8.55388e-05
9.04014e-05
9.52187e-05
9.93598e-05
8.46315e-05
8.43177e-05
8.37394e-05
8.288e-05
8.17572e-05
8.04063e-05
7.88673e-05
7.71801e-05
7.53885e-05
7.35958e-05
7.18879e-05
7.03643e-05
6.91357e-05
6.83193e-05
6.80315e-05
6.83767e-05
6.94516e-05
7.13278e-05
7.40647e-05
7.77627e-05
8.22779e-05
8.75088e-05
9.31942e-05
9.8835e-05
0.000103654
8.79502e-05
8.75855e-05
8.69268e-05
8.59547e-05
8.46907e-05
8.31743e-05
8.14497e-05
7.95676e-05
7.7572e-05
7.55335e-05
7.3567e-05
7.17704e-05
7.02589e-05
6.91602e-05
6.86086e-05
6.87331e-05
6.96565e-05
7.14834e-05
7.42921e-05
7.81972e-05
8.3139e-05
8.89784e-05
9.54388e-05
0.000101905
0.000107416
9.18482e-05
9.14333e-05
9.06924e-05
8.96034e-05
8.81928e-05
8.65041e-05
8.4587e-05
8.24999e-05
8.03043e-05
7.80188e-05
7.5788e-05
7.37083e-05
7.18942e-05
7.04782e-05
6.9607e-05
6.94329e-05
7.01022e-05
7.17563e-05
7.45048e-05
7.84662e-05
8.37165e-05
9.00737e-05
9.72579e-05
0.000104542
0.000110755
9.63263e-05
9.58626e-05
9.50386e-05
9.38296e-05
9.22667e-05
9.03977e-05
8.82779e-05
8.59695e-05
8.35406e-05
8.10565e-05
7.85491e-05
7.61861e-05
7.40679e-05
7.2321e-05
7.10962e-05
7.05625e-05
7.08915e-05
7.22577e-05
7.48172e-05
7.87092e-05
8.41341e-05
9.09045e-05
9.87575e-05
0.000106853
0.000113784
0.000101375
0.000100866
9.99603e-05
9.86314e-05
9.69143e-05
9.48601e-05
9.25292e-05
8.99907e-05
8.732e-05
8.45952e-05
8.18332e-05
7.9199e-05
7.6787e-05
7.47153e-05
7.31286e-05
7.22004e-05
7.21262e-05
7.31093e-05
7.53613e-05
7.90716e-05
8.44915e-05
9.15741e-05
0.000100039
0.000108959
0.0001166
0.000106977
0.000106427
0.000105446
0.000104003
0.000102136
9.98974e-05
9.73513e-05
9.45727e-05
9.16431e-05
8.86453e-05
8.56508e-05
8.27417e-05
8.0046e-05
7.76684e-05
7.57359e-05
7.44106e-05
7.3896e-05
7.44232e-05
7.62528e-05
7.96497e-05
8.48908e-05
9.2161e-05
0.000101128
0.000110819
0.000119218
0.000113101
0.000112521
0.000111476
0.000109933
0.00010793
0.000105519
0.000102764
9.97446e-05
9.65491e-05
9.32752e-05
9.00278e-05
8.68213e-05
8.38444e-05
8.11786e-05
7.89264e-05
7.72262e-05
7.62655e-05
7.6289e-05
7.75973e-05
8.05347e-05
8.54502e-05
9.27229e-05
0.000102097
0.000112509
0.000121692
0.000119707
0.000119108
0.000118018
0.000116401
0.00011429
0.000111733
0.000108793
0.000105546
0.000102084
9.85082e-05
9.49305e-05
9.14576e-05
8.82066e-05
8.52628e-05
8.27115e-05
8.06602e-05
7.92676e-05
7.87682e-05
7.94843e-05
8.18259e-05
8.6259e-05
9.33363e-05
0.00010295
0.000114035
0.000123992
0.000126738
0.000126137
0.000125028
0.000123372
0.000121197
0.000118545
0.000115467
0.000112034
0.000108331
0.000104463
0.000100558
9.68035e-05
9.32405e-05
8.99787e-05
8.71071e-05
8.47105e-05
8.29024e-05
8.18813e-05
8.19711e-05
8.36254e-05
8.74178e-05
9.40405e-05
0.000103669
0.000115333
0.000126044
0.000134119
0.000133535
0.000132441
0.000130794
0.000128617
0.000125939
0.000122804
0.000119266
0.000115398
0.000111314
0.00010719
0.000103128
9.91823e-05
9.54951e-05
9.21878e-05
8.93567e-05
8.71053e-05
8.55883e-05
8.50666e-05
8.59951e-05
8.8967e-05
9.48801e-05
0.000104219
0.000116265
0.000127719
0.000141762
0.000141215
0.000140174
0.000138594
0.000136488
0.000133876
0.000130793
0.000127281
0.0001234
0.000119309
0.000115052
0.000110658
0.00010628
0.000102071
9.82117e-05
9.48248e-05
9.20176e-05
8.99036e-05
8.86902e-05
8.88345e-05
9.08783e-05
9.58101e-05
0.000104535
0.000116748
0.000128995
0.000149558
0.000149071
0.000148123
0.000146672
0.000144723
0.000142275
0.000139381
0.00013608
0.000132442
0.000128468
0.000124177
0.000119631
0.000114934
0.000110217
0.000105682
0.000101522
9.79191e-05
9.50241e-05
9.30115e-05
9.21805e-05
9.312e-05
9.68629e-05
0.000104534
0.000116505
0.000129379
0.000157389
0.000156978
0.000156155
0.000154878
0.000153178
0.000151047
0.000148508
0.000145642
0.000142363
0.000138678
0.000134613
0.000130189
0.000125464
0.000120487
0.000115395
0.000110409
0.000105746
0.000101652
9.84113e-05
9.63291e-05
9.59105e-05
9.80999e-05
0.000103983
0.000114791
0.000127771
0.000165115
0.00016479
0.000164138
0.000163126
0.000161751
0.000160037
0.000158048
0.000155709
0.000152963
0.000149832
0.000146292
0.000142332
0.000137984
0.000133192
0.000127992
0.000122503
0.000116906
0.000111387
0.000106252
0.00010201
9.94823e-05
9.9125e-05
0.000101958
0.000109857
0.00012174
0.000172614
0.000172398
0.000171953
0.000171231
0.000170249
0.000169084
0.000167603
0.000165784
0.000163704
0.000161349
0.00015869
0.000155665
0.00015213
0.000148032
0.000143454
0.000138221
0.000132385
0.000126021
0.000119187
0.000112109
0.000105875
0.000100819
9.81165e-05
9.97879e-05
0.000106652
0.000179786
0.000179681
0.000179426
0.000178985
0.000178409
0.000177596
0.000176592
0.000175394
0.000174012
0.000172428
0.000170614
0.000168525
0.00016611
0.000163298
0.000159804
0.000155535
0.000150454
0.000144336
0.000137178
0.000128776
0.000118599
0.000106563
9.42376e-05
8.12102e-05
6.81146e-05
0.000186563
0.000186524
0.000186384
0.000186116
0.00018569
0.000185121
0.000184414
0.000183565
0.000182567
0.000181405
0.000180048
0.000178454
0.000176567
0.000174321
0.000171601
0.000168291
0.000163989
0.000158454
0.000151534
0.000142735
0.000131424
0.000116688
9.63036e-05
6.28675e-05
-4.67128e-06
0.000193101
0.000193075
0.00019295
0.000192693
0.000192297
0.000191767
0.000191103
0.0001903
0.00018935
0.000188233
0.00018692
0.000185368
0.000183519
0.000181295
0.000178587
0.00017525
0.000171077
0.000165848
0.000158963
0.000150012
0.000138381
0.000122685
0.000100433
6.67415e-05
1.53806e-05
0.000199408
0.000199383
0.000199258
0.000198998
0.000198602
0.00019807
0.000197402
0.000196592
0.00019563
0.000194497
0.000193163
0.000191586
0.000189706
0.000187444
0.00018469
0.000181303
0.000177096
0.000171822
0.000165104
0.000156478
0.000145342
0.000130694
0.000111103
8.4908e-05
5.22469e-05
0.000205487
0.000205462
0.000205338
0.00020508
0.000204686
0.000204157
0.000203491
0.000202684
0.000201726
0.000200599
0.000199275
0.000197715
0.000195861
0.000193639
0.000190951
0.000187668
0.000183632
0.000178632
0.000172399
0.000164599
0.000154819
0.000142548
0.000127314
0.00010915
8.98002e-05
0.000211339
0.000211317
0.000211199
0.00021095
0.000210569
0.000210057
0.000209414
0.000208635
0.000207712
0.000206631
0.000205366
0.000203883
0.000202133
0.000200051
0.000197555
0.000194542
0.000190887
0.000186441
0.000181028
0.000174457
0.000166541
0.000157151
0.00014637
0.000134836
0.000124218
0.000216968
0.000216951
0.000216843
0.00021661
0.000216253
0.000215773
0.00021517
0.000214442
0.000213585
0.000212585
0.000211424
0.000210073
0.000208492
0.000206632
0.000204429
0.000201809
0.000198688
0.000194975
0.000190581
0.000185438
0.000179529
0.000172953
0.000166037
0.000159513
0.000154664
0.000222374
0.000222363
0.00022227
0.000222061
0.000221737
0.000221301
0.000220756
0.000220101
0.000219333
0.000218445
0.000217424
0.00021625
0.000214892
0.000213316
0.000211479
0.000209336
0.000206839
0.000203951
0.000200651
0.00019696
0.000192966
0.00018888
0.000185094
0.000182262
0.000181322
0.000227559
0.000227556
0.000227481
0.000227301
0.00022702
0.00022664
0.000226166
0.0002256
0.000224943
0.000224193
0.000223341
0.000222376
0.000221279
0.000220029
0.000218604
0.000216982
0.000215149
0.000213107
0.000210885
0.000208559
0.000206273
0.000204272
0.000202938
0.000202804
0.000204555
0.000232522
0.000232529
0.000232475
0.00023233
0.000232098
0.000231783
0.000231391
0.000230929
0.000230399
0.000229804
0.000229142
0.000228408
0.000227596
0.000226696
0.000225703
0.000224615
0.000223444
0.000222219
0.000221003
0.000219898
0.00021907
0.000218762
0.000219309
0.000221138
0.00022475
0.000237264
0.000237281
0.000237251
0.000237145
0.000236967
0.000236724
0.000236424
0.000236074
0.000235683
0.000235255
0.000234795
0.000234305
0.000233787
0.000233244
0.000232683
0.000232117
0.000231577
0.000231111
0.000230795
0.000230747
0.000231129
0.000232164
0.000234135
0.000237379
0.000242267
0.000241782
0.000241811
0.000241807
0.000241742
0.000241622
0.000241456
0.000241253
0.000241023
0.000240776
0.000240521
0.000240268
0.000240025
0.000239802
0.000239609
0.000239463
0.000239391
0.000239433
0.000239646
0.000240115
0.000240956
0.000242321
0.000244405
0.00024744
0.00025169
0.000257435
0.000246076
0.000246117
0.00024614
0.000246118
0.00024606
0.000245973
0.00024587
0.000245761
0.00024566
0.00024558
0.000245533
0.000245532
0.000245593
0.000245734
0.000245978
0.000246358
0.000246921
0.000247729
0.000248865
0.000250439
0.000252588
0.000255476
0.000259293
0.000264245
0.000270543
0.000250144
0.000250198
0.000250248
0.00025027
0.000250273
0.000250267
0.000250264
0.000250276
0.00025032
0.00025041
0.000250563
0.000250794
0.000251124
0.000251574
0.000252174
0.000252959
0.000253979
0.000255295
0.000256987
0.000259154
0.000261916
0.000265409
0.000269787
0.000275212
0.000281841
0.000253985
0.000254052
0.000254129
0.000254195
0.000254259
0.000254332
0.000254427
0.000254558
0.000254742
0.000254995
0.000255336
0.000255785
0.000256363
0.000257095
0.000258012
0.000259152
0.000260564
0.000262306
0.000264452
0.000267089
0.000270319
0.000274257
0.000279024
0.000284747
0.000291544
0.000257599
0.000257679
0.000257782
0.000257891
0.000258014
0.000258164
0.000258353
0.000258597
0.000258914
0.00025932
0.000259837
0.000260485
0.000261287
0.00026227
0.000263465
0.00026491
0.000266651
0.000268743
0.000271251
0.000274253
0.000277832
0.000282084
0.000287105
0.000292993
0.000299839
0.000260986
0.000261077
0.000261206
0.000261355
0.000261536
0.000261758
0.000262036
0.000262387
0.000262827
0.000263375
0.000264052
0.000264879
0.000265881
0.000267083
0.000268516
0.000270218
0.00027223
0.000274603
0.000277394
0.000280669
0.000284498
0.000288959
0.000294128
0.000300082
0.000306888
0.000264145
0.000264247
0.0002644
0.000264588
0.000264822
0.000265112
0.000265474
0.000265923
0.000266476
0.000267152
0.000267973
0.000268959
0.000270133
0.000271523
0.000273158
0.000275071
0.000277302
0.000279894
0.000282898
0.00028637
0.000290368
0.000294953
0.000300188
0.00030613
0.00031283
0.000267079
0.000267191
0.000267366
0.00026759
0.000267873
0.000268226
0.000268664
0.000269202
0.000269857
0.000270648
0.000271595
0.000272718
0.000274041
0.000275589
0.000277389
0.000279472
0.000281873
0.000284632
0.00028779
0.000291394
0.000295493
0.000300137
0.000305372
0.000311244
0.000317789
0.000269789
0.000269911
0.000270106
0.000270362
0.00027069
0.0002711
0.000271607
0.000272224
0.00027297
0.000273861
0.000274917
0.000276158
0.000277605
0.000279283
0.000281215
0.00028343
0.00028596
0.000288837
0.000292099
0.000295783
0.000299929
0.000304577
0.000309763
0.000315521
0.000321877
0.000272279
0.000272409
0.000272621
0.000272907
0.000273275
0.000273736
0.000274304
0.000274992
0.000275816
0.000276793
0.000277942
0.000279281
0.00028083
0.00028261
0.000284645
0.00028696
0.000289581
0.000292537
0.000295859
0.000299578
0.000303727
0.000308337
0.000313435
0.000319046
0.000325189
0.000274552
0.000274689
0.000274917
0.000275228
0.000275632
0.000276138
0.000276758
0.000277507
0.000278399
0.000279449
0.000280674
0.000282093
0.000283722
0.000285582
0.000287693
0.000290077
0.000292757
0.000295758
0.000299105
0.000302824
0.000306941
0.000311478
0.000316459
0.000321899
0.000327812
0.000276613
0.000276755
0.000276997
0.000277331
0.000277765
0.00027831
0.000278976
0.000279776
0.000280724
0.000281834
0.000283121
0.000284602
0.000286293
0.000288211
0.000290374
0.000292802
0.000295514
0.00029853
0.000301873
0.000305562
0.000309617
0.000314058
0.000318899
0.000324152
0.000329824
0.000278467
0.000278614
0.000278867
0.00027922
0.00027968
0.000280257
0.000280962
0.000281805
0.000282798
0.000283956
0.000285292
0.00028682
0.000288555
0.000290512
0.000292706
0.000295155
0.000297876
0.000300884
0.000304197
0.000307833
0.000311805
0.000316128
0.000320813
0.000325867
0.000331294
0.00028012
0.000280271
0.000280534
0.000280902
0.000281384
0.000281988
0.000282723
0.0002836
0.000284631
0.000285825
0.000287197
0.000288758
0.000290521
0.0002925
0.000294708
0.00029716
0.000299868
0.000302848
0.000306113
0.000309676
0.000313548
0.000317739
0.000322257
0.000327105
0.000332284
0.00028158
0.000281733
0.000282003
0.000282383
0.000282883
0.000283508
0.000284268
0.000285172
0.00028623
0.000287451
0.000288847
0.000290428
0.000292206
0.000294193
0.000296399
0.000298837
0.000301518
0.000304453
0.000307653
0.000311128
0.000314887
0.000318935
0.000323278
0.000327917
0.000332849
0.000282852
0.000283007
0.000283282
0.000283672
0.000284185
0.000284827
0.000285606
0.000286529
0.000287606
0.000288844
0.000290254
0.000291845
0.000293627
0.000295608
0.000297799
0.000300209
0.000302849
0.000305726
0.000308849
0.000312225
0.000315861
0.000319759
0.000323923
0.000328351
0.00033304
0.000283945
0.0002841
0.000284379
0.000284776
0.000285298
0.000285952
0.000286744
0.000287681
0.000288769
0.000290017
0.000291433
0.000293023
0.000294797
0.000296763
0.000298928
0.0003013
0.000303886
0.000306695
0.000309731
0.000313
0.000316505
0.00032025
0.000324232
0.000328451
0.000332902
0.000284866
0.000285022
0.000285302
0.000285703
0.000286232
0.000286894
0.000287694
0.000288638
0.000289731
0.000290982
0.000292394
0.000293976
0.000295734
0.000297675
0.000299804
0.000302129
0.000304654
0.000307385
0.000310327
0.000313483
0.000316854
0.000320442
0.000324244
0.000328256
0.000332474
0.000285624
0.000285779
0.000286059
0.000286463
0.000286995
0.000287661
0.000288464
0.00028941
0.000290504
0.00029175
0.000293153
0.000294719
0.000296454
0.000298362
0.000300448
0.000302718
0.000305175
0.000307823
0.000310665
0.000313703
0.000316938
0.000320368
0.000323991
0.000327801
0.000331793
0.000286227
0.00028638
0.00028666
0.000287063
0.000287597
0.000288263
0.000289066
0.000290009
0.000291097
0.000292334
0.000293722
0.000295266
0.000296971
0.00029884
0.000300877
0.000303086
0.00030547
0.00030803
0.000310769
0.000313688
0.000316785
0.000320058
0.000323505
0.000327118
0.000330892
0.000286684
0.000286835
0.000287112
0.000287514
0.000288046
0.000288709
0.000289509
0.000290446
0.000291524
0.000292746
0.000294114
0.000295631
0.000297301
0.000299127
0.00030111
0.000303254
0.00030556
0.00030803
0.000310664
0.000313461
0.000316421
0.00031954
0.000322814
0.000326237
0.000329801
0.000287002
0.000287151
0.000287425
0.000287824
0.000288351
0.00028901
0.000289802
0.00029073
0.000291794
0.000292998
0.000294342
0.000295828
0.000297459
0.000299237
0.000301163
0.000303238
0.000305464
0.000307841
0.000310369
0.000313046
0.00031587
0.000318838
0.000321944
0.000325182
0.000328545
0.000287191
0.000287337
0.000287607
0.000288001
0.000288523
0.000289175
0.000289958
0.000290872
0.00029192
0.000293102
0.000294418
0.00029587
0.000297459
0.000299186
0.000301052
0.000303057
0.000305201
0.000307485
0.000309906
0.000312464
0.000315155
0.000317974
0.000320918
0.000323979
0.000327149
0.000287259
0.000287402
0.000287667
0.000288056
0.000288571
0.000289213
0.000289984
0.000290884
0.000291912
0.00029307
0.000294356
0.000295771
0.000297315
0.000298989
0.000300792
0.000302725
0.000304788
0.000306978
0.000309294
0.000311734
0.000314295
0.000316971
0.000319757
0.000322647
0.000325633
0.000287215
0.000287354
0.000287614
0.000287996
0.000288502
0.000289134
0.000289892
0.000290774
0.000291781
0.000292912
0.000294166
0.000295542
0.00029704
0.000298659
0.000300399
0.00030226
0.00030424
0.000306337
0.00030855
0.000310875
0.000313308
0.000315845
0.000318481
0.000321208
0.000324018
0.000287067
0.000287201
0.000287456
0.00028783
0.000288327
0.000288947
0.00028969
0.000290553
0.000291537
0.00029264
0.000293859
0.000295195
0.000296645
0.000298209
0.000299886
0.000301674
0.000303572
0.000305578
0.000307689
0.000309902
0.000312212
0.000314616
0.000317106
0.000319677
0.00032232
0.000286822
0.000286953
0.000287201
0.000287567
0.000288054
0.000288661
0.000289387
0.000290231
0.00029119
0.000292263
0.000293448
0.000294742
0.000296144
0.000297652
0.000299265
0.000300982
0.000302799
0.000304715
0.000306727
0.000308831
0.000311023
0.000313297
0.000315649
0.000318071
0.000320556
0.000286489
0.000286616
0.000286857
0.000287215
0.000287691
0.000288284
0.000288993
0.000289816
0.00029075
0.000291792
0.000292941
0.000294193
0.000295547
0.000296999
0.00029855
0.000300195
0.000301933
0.000303762
0.000305677
0.000307676
0.000309753
0.000311904
0.000314123
0.000316404
0.000318738
0.000286076
0.000286198
0.000286433
0.000286782
0.000287246
0.000287825
0.000288516
0.000289317
0.000290225
0.000291237
0.000292349
0.000293559
0.000294864
0.000296262
0.00029775
0.000299326
0.000300987
0.00030273
0.000304552
0.000306449
0.000308417
0.00031045
0.000312543
0.000314689
0.000316881
0.00028559
0.000285708
0.000285936
0.000286276
0.000286728
0.000287292
0.000287965
0.000288744
0.000289625
0.000290606
0.000291682
0.00029285
0.000294107
0.00029545
0.000296877
0.000298385
0.000299971
0.000301632
0.000303364
0.000305164
0.000307026
0.000308946
0.000310919
0.000312937
0.000314994
0.000285037
0.000285152
0.000285373
0.000285703
0.000286144
0.000286693
0.000287347
0.000288103
0.000288958
0.000289908
0.000290948
0.000292074
0.000293284
0.000294574
0.000295941
0.000297383
0.000298896
0.000300477
0.000302123
0.000303829
0.000305591
0.000307403
0.000309262
0.000311159
0.000313089
0.000284427
0.000284537
0.000284751
0.000285072
0.000285501
0.000286034
0.00028667
0.000287404
0.000288233
0.000289151
0.000290155
0.000291241
0.000292404
0.000293642
0.000294951
0.000296329
0.000297771
0.000299276
0.000300839
0.000302455
0.000304121
0.000305832
0.000307581
0.000309364
0.000311174
0.000283764
0.00028387
0.000284078
0.00028439
0.000284806
0.000285324
0.000285941
0.000286653
0.000287455
0.000288343
0.000289312
0.000290358
0.000291476
0.000292663
0.000293916
0.000295232
0.000296607
0.000298037
0.00029952
0.000301051
0.000302626
0.000304239
0.000305887
0.000307561
0.000309258
0.000283055
0.000283158
0.000283359
0.000283662
0.000284066
0.000284569
0.000285168
0.000285858
0.000286634
0.000287492
0.000288426
0.000289433
0.000290507
0.000291645
0.000292843
0.000294099
0.000295409
0.00029677
0.000298177
0.000299626
0.000301114
0.000302635
0.000304185
0.000305758
0.000307348
0.000282307
0.000282407
0.000282601
0.000282895
0.000283287
0.000283776
0.000284356
0.000285025
0.000285776
0.000286604
0.000287505
0.000288473
0.000289505
0.000290595
0.000291741
0.00029294
0.000294188
0.00029548
0.000296815
0.000298187
0.000299592
0.000301026
0.000302485
0.000303961
0.000305451
0.000281526
0.000281622
0.000281811
0.000282096
0.000282476
0.00028295
0.000283513
0.00028416
0.000284887
0.000285687
0.000286555
0.000287486
0.000288476
0.000289521
0.000290617
0.00029176
0.000292948
0.000294177
0.000295442
0.000296741
0.000298068
0.00029942
0.000300791
0.000302177
0.000303573
0.000280717
0.00028081
0.000280993
0.000281269
0.000281639
0.000282099
0.000282644
0.000283271
0.000283973
0.000284745
0.000285582
0.000286478
0.000287428
0.000288429
0.000289476
0.000290567
0.000291698
0.000292865
0.000294065
0.000295294
0.000296547
0.000297821
0.000299111
0.000300412
0.000301719
0.000279885
0.000279976
0.000280153
0.000280422
0.00028078
0.000281226
0.000281755
0.000282362
0.000283041
0.000283786
0.000284592
0.000285454
0.000286366
0.000287325
0.000288326
0.000289367
0.000290443
0.000291552
0.000292689
0.000293852
0.000295035
0.000296236
0.000297449
0.00029867
0.000299894
0.000279037
0.000279124
0.000279297
0.000279558
0.000279906
0.000280339
0.000280852
0.000281439
0.000282096
0.000282815
0.000283592
0.000284421
0.000285296
0.000286214
0.000287172
0.000288164
0.000289189
0.000290242
0.000291321
0.000292421
0.000293538
0.000294669
0.00029581
0.000296955
0.000298102
0.000278176
0.000278261
0.000278429
0.000278683
0.000279021
0.000279442
0.000279939
0.000280508
0.000281143
0.000281838
0.000282586
0.000283383
0.000284223
0.000285103
0.000286018
0.000286965
0.000287941
0.000288942
0.000289964
0.000291005
0.00029206
0.000293126
0.000294198
0.000295273
0.000296347
0.000277308
0.000277391
0.000277555
0.000277802
0.000278131
0.000278539
0.000279022
0.000279573
0.000280187
0.000280858
0.00028158
0.000282346
0.000283153
0.000283996
0.000284871
0.000285775
0.000286703
0.000287654
0.000288624
0.000289609
0.000290605
0.00029161
0.000292618
0.000293627
0.000294632
0.000276436
0.000276518
0.000276678
0.000276919
0.000277239
0.000277636
0.000278105
0.000278639
0.000279234
0.000279882
0.000280577
0.000281315
0.00028209
0.000282898
0.000283734
0.000284597
0.000285481
0.000286385
0.000287305
0.000288237
0.000289178
0.000290125
0.000291074
0.000292021
0.000292962
0.000275566
0.000275647
0.000275804
0.000276039
0.000276351
0.000276737
0.000277192
0.000277711
0.000278286
0.000278912
0.000279583
0.000280294
0.000281038
0.000281812
0.000282613
0.000283436
0.000284279
0.000285138
0.00028601
0.000286893
0.000287782
0.000288675
0.000289567
0.000290456
0.000291338
0.000274701
0.000274781
0.000274936
0.000275165
0.00027547
0.000275846
0.000276289
0.000276792
0.000277349
0.000277955
0.000278602
0.000279286
0.000280002
0.000280744
0.00028151
0.000282296
0.000283099
0.000283916
0.000284744
0.00028558
0.00028642
0.000287262
0.000288102
0.000288936
0.000289762
0.000273845
0.000273926
0.000274078
0.000274303
0.000274601
0.000274968
0.000275398
0.000275887
0.000276427
0.000277013
0.000277638
0.000278297
0.000278984
0.000279697
0.00028043
0.000281181
0.000281946
0.000282724
0.000283509
0.000284301
0.000285095
0.000285889
0.00028668
0.000287464
0.000288237
0.000273002
0.000273083
0.000273234
0.000273455
0.000273747
0.000274105
0.000274524
0.000274999
0.000275523
0.00027609
0.000276694
0.000277329
0.00027799
0.000278674
0.000279376
0.000280093
0.000280823
0.000281563
0.000282309
0.000283059
0.00028381
0.000284559
0.000285304
0.00028604
0.000286766
0.000272175
0.000272258
0.000272408
0.000272626
0.000272912
0.000273262
0.000273671
0.000274133
0.000274642
0.000275191
0.000275774
0.000276386
0.000277023
0.000277679
0.000278351
0.000279037
0.000279733
0.000280437
0.000281146
0.000281857
0.000282567
0.000283275
0.000283976
0.000284668
0.000285348
0.000271368
0.000271453
0.000271603
0.000271819
0.0002721
0.000272443
0.000272842
0.000273292
0.000273786
0.000274318
0.000274882
0.000275472
0.000276084
0.000276714
0.000277358
0.000278014
0.000278678
0.000279349
0.000280022
0.000280696
0.000281369
0.000282037
0.000282698
0.000283349
0.000283987
0.000270584
0.000270672
0.000270823
0.000271038
0.000271315
0.000271651
0.000272041
0.000272479
0.000272959
0.000273474
0.00027402
0.000274589
0.000275178
0.000275783
0.000276401
0.000277028
0.000277662
0.0002783
0.00027894
0.00027958
0.000280216
0.000280848
0.000281471
0.000282083
0.000282683
0.000269826
0.000269918
0.000270071
0.000270285
0.000270559
0.000270889
0.000271271
0.000271698
0.000272164
0.000272664
0.000273191
0.00027374
0.000274307
0.000274888
0.00027548
0.00027608
0.000276685
0.000277293
0.000277902
0.000278509
0.000279112
0.000279708
0.000280296
0.000280873
0.000281436
0.000269098
0.000269195
0.000269352
0.000269566
0.000269837
0.000270162
0.000270535
0.000270952
0.000271405
0.000271889
0.000272399
0.000272929
0.000273474
0.000274032
0.000274599
0.000275173
0.00027575
0.00027633
0.000276908
0.000277485
0.000278056
0.000278621
0.000279176
0.000279719
0.000280248
0.000268403
0.000268506
0.000268667
0.000268883
0.000269152
0.000269472
0.000269838
0.000270244
0.000270684
0.000271153
0.000271646
0.000272156
0.000272681
0.000273216
0.000273759
0.000274308
0.000274859
0.000275411
0.000275962
0.000276509
0.000277051
0.000277585
0.000278109
0.000278622
0.00027912
0.000267744
0.000267854
0.000268022
0.00026824
0.000268508
0.000268823
0.000269182
0.000269577
0.000270005
0.000270459
0.000270934
0.000271426
0.00027193
0.000272443
0.000272963
0.000273487
0.000274013
0.000274539
0.000275063
0.000275583
0.000276097
0.000276603
0.000277098
0.000277582
0.000278051
0.000267124
0.000267244
0.00026742
0.000267641
0.000267908
0.00026822
0.000268571
0.000268956
0.00026937
0.000269809
0.000270267
0.000270739
0.000271223
0.000271715
0.000272212
0.000272712
0.000273214
0.000273715
0.000274213
0.000274707
0.000275195
0.000275674
0.000276143
0.0002766
0.000277043
0.000266547
0.000266679
0.000266865
0.00026709
0.000267358
0.000267665
0.000268008
0.000268382
0.000268783
0.000269205
0.000269645
0.000270098
0.000270561
0.000271032
0.000271506
0.000271984
0.000272462
0.000272939
0.000273413
0.000273883
0.000274345
0.0002748
0.000275244
0.000275676
0.000276094
0.000266017
0.000266165
0.000266362
0.000266593
0.000266861
0.000267164
0.000267498
0.00026786
0.000268245
0.000268651
0.000269072
0.000269505
0.000269947
0.000270395
0.000270848
0.000271303
0.000271758
0.000272212
0.000272663
0.000273109
0.000273548
0.00027398
0.000274401
0.00027481
0.000275206
0.00026554
0.000265706
0.000265918
0.000266156
0.000266423
0.00026672
0.000267044
0.000267392
0.000267761
0.000268147
0.000268548
0.00026896
0.000269381
0.000269807
0.000270237
0.00027067
0.000271103
0.000271534
0.000271963
0.000272387
0.000272805
0.000273214
0.000273614
0.000274002
0.000274377
0.00026512
0.000265309
0.000265539
0.000265784
0.000266051
0.00026634
0.000266651
0.000266982
0.000267332
0.000267697
0.000268076
0.000268465
0.000268863
0.000269267
0.000269675
0.000270085
0.000270496
0.000270906
0.000271313
0.000271716
0.000272113
0.000272503
0.000272882
0.000273251
0.000273607
0.000264765
0.000264983
0.000265235
0.000265488
0.000265751
0.000266029
0.000266323
0.000266633
0.00026696
0.000267301
0.000267655
0.00026802
0.000268394
0.000268774
0.000269159
0.000269548
0.000269937
0.000270327
0.000270714
0.000271097
0.000271475
0.000271845
0.000272206
0.000272557
0.000272896
0.000264485
0.000264739
0.000265016
0.000265276
0.000265532
0.000265793
0.000266064
0.000266348
0.000266646
0.000266959
0.000267286
0.000267624
0.000267973
0.000268329
0.000268691
0.000269058
0.000269426
0.000269796
0.000270163
0.000270528
0.000270888
0.000271241
0.000271586
0.00027192
0.000272244
0.000264296
0.000264594
0.0002649
0.000265163
0.000265404
0.000265639
0.000265879
0.000266129
0.000266393
0.000266673
0.000266968
0.000267277
0.000267598
0.00026793
0.000268269
0.000268614
0.000268962
0.000269312
0.000269662
0.000270009
0.000270353
0.00027069
0.000271019
0.000271339
0.000271649
0.000264218
0.00026457
0.000264908
0.000265165
0.000265378
0.000265575
0.000265771
0.000265976
0.000266198
0.000266439
0.000266699
0.000266976
0.000267269
0.000267575
0.000267891
0.000268214
0.000268543
0.000268875
0.000269208
0.00026954
0.000269868
0.000270191
0.000270506
0.000270813
0.00027111
0.000264288
0.000264704
0.000265069
0.000265303
0.000265468
0.000265605
0.000265741
0.000265889
0.000266059
0.000266255
0.000266475
0.000266718
0.000266981
0.000267261
0.000267554
0.000267858
0.000268168
0.000268484
0.000268801
0.000269118
0.000269433
0.000269743
0.000270047
0.000270342
0.000270628
0.00026457
0.000265051
0.000265427
0.000265605
0.000265686
0.000265735
0.000265787
0.000265863
0.000265971
0.000266114
0.000266291
0.000266498
0.000266731
0.000266986
0.000267257
0.000267542
0.000267836
0.000268136
0.00026844
0.000268744
0.000269047
0.000269346
0.000269639
0.000269924
0.000270201
0.000265179
0.000265698
0.000266039
0.0002661
0.000266042
0.000265962
0.000265903
0.000265888
0.000265922
0.000266007
0.000266139
0.00026631
0.000266514
0.000266744
0.000266996
0.000267263
0.000267543
0.00026783
0.000268122
0.000268416
0.000268708
0.000268998
0.000269282
0.00026956
0.000269829
0.000266324
0.000266779
0.000266977
0.000266815
0.000266537
0.000266274
0.000266071
0.000265946
0.000265899
0.000265924
0.000266009
0.000266146
0.000266323
0.000266532
0.000266767
0.00026702
0.000267288
0.000267565
0.000267847
0.000268132
0.000268417
0.000268699
0.000268977
0.000269247
0.00026951
0.000268359
0.000268491
0.000268319
0.000267759
0.000267149
0.000266637
0.00026626
0.000266013
0.000265882
0.000265847
0.000265891
0.000265997
0.000266153
0.000266346
0.000266567
0.00026681
0.000267069
0.000267338
0.000267614
0.000267893
0.000268172
0.000268449
0.000268721
0.000268987
0.000269244
0.000272204
0.000271247
0.000270117
0.000268865
0.00026779
0.000266979
0.000266411
0.000266043
0.000265836
0.000265754
0.000265767
0.000265853
0.000265994
0.000266178
0.000266392
0.00026663
0.000266883
0.000267149
0.000267421
0.000267696
0.000267972
0.000268245
0.000268514
0.000268776
0.00026903
0.000281059
0.000275954
0.000272306
0.000269923
0.000268275
0.000267151
0.000266418
0.000265968
0.000265718
0.000265614
0.000265616
0.000265697
0.000265836
0.000266018
0.000266233