/*--------------------------------*- C++ -*----------------------------------*\
  =========                 |
  \\      /  F ield         | OpenFOAM: The Open Source CFD Toolbox
   \\    /   O peration     | Website:  https://openfoam.org
    \\  /    A nd           | Version:  13
     \\/     M anipulation  |
\*---------------------------------------------------------------------------*/
FoamFile
{
    format      ascii;
    class       surfaceScalarField;
    location    "27";
    object      phi;
}
// * * * * * * * * * * * * * * * * * * * * * * * * * * * * * * * * * * * * * //

dimensions      [0 3 -1 0 0 0 0];

internalField   nonuniform List<scalar> 
12590
(
-4.18475e-08
4.27971e-08
-1.88254e-08
-2.28002e-08
7.33221e-08
-9.10756e-08
1.7759e-07
-1.04145e-07
2.58529e-07
-8.00665e-08
3.03102e-07
-4.38621e-08
3.1073e-07
-6.74071e-09
2.88357e-07
2.32465e-08
2.43916e-07
4.53692e-08
1.85511e-07
5.90291e-08
1.22131e-07
6.42854e-08
6.11978e-08
6.20366e-08
4.83623e-09
5.8304e-08
-4.79228e-08
5.4935e-08
-9.52063e-08
4.97369e-08
-1.39733e-07
4.60843e-08
-1.76603e-07
3.92902e-08
-2.0394e-07
2.83513e-08
-2.17932e-07
1.62724e-08
-2.21149e-07
4.43809e-09
-2.01838e-07
-1.73648e-08
-1.60771e-07
-3.99685e-08
-9.98783e-08
-5.82475e-08
-3.27279e-08
-6.34516e-08
-3.12896e-08
2.71539e-09
4.0755e-08
8.65631e-08
-1.06451e-07
2.00329e-07
-2.0443e-07
3.0664e-07
-2.10221e-07
3.89956e-07
-1.62883e-07
4.39991e-07
-9.34355e-08
4.53125e-07
-1.91501e-08
4.31437e-07
4.5604e-08
3.79777e-07
9.77095e-08
3.03229e-07
1.36181e-07
2.09392e-07
1.58862e-07
1.07335e-07
1.64957e-07
1.20513e-08
1.54998e-07
-6.71494e-08
1.36031e-07
-1.33217e-07
1.17522e-07
-1.89225e-07
1.03773e-07
-2.36961e-07
8.8444e-08
-2.65517e-07
5.83514e-08
-2.69939e-07
2.25008e-08
-2.58224e-07
-5.73286e-09
-2.24238e-07
-4.93262e-08
-1.77799e-07
-8.44215e-08
-1.22182e-07
-1.11736e-07
-5.66676e-08
-1.2514e-07
-8.65902e-08
7.75452e-08
-3.66705e-08
2.24832e-07
-2.53673e-07
3.67457e-07
-3.46858e-07
4.87311e-07
-3.2986e-07
5.78918e-07
-2.5415e-07
6.37419e-07
-1.51447e-07
6.60975e-07
-4.21726e-08
6.51776e-07
5.54521e-08
6.1305e-07
1.37107e-07
5.45054e-07
2.04754e-07
4.53739e-07
2.50813e-07
3.45667e-07
2.73637e-07
2.27977e-07
2.73531e-07
1.12102e-07
2.527e-07
1.06878e-08
2.20348e-07
-7.21983e-08
1.87772e-07
-1.32535e-07
1.50834e-07
-1.68476e-07
9.60587e-08
-1.80493e-07
3.65111e-08
-1.7485e-07
-8.25035e-09
-1.55648e-07
-6.60953e-08
-1.26571e-07
-1.11083e-07
-9.13355e-08
-1.4344e-07
-4.90002e-08
-1.63722e-07
-1.34057e-07
1.68615e-07
-2.05316e-07
3.65199e-07
-4.50225e-07
5.22868e-07
-5.04389e-07
6.45683e-07
-4.52416e-07
7.36951e-07
-3.45048e-07
7.99932e-07
-2.13951e-07
8.36196e-07
-7.77377e-08
8.35884e-07
5.65254e-08
7.99934e-07
1.73822e-07
7.35299e-07
2.7008e-07
6.48038e-07
3.3879e-07
5.45502e-07
3.7678e-07
4.36714e-07
3.82982e-07
3.28134e-07
3.6174e-07
2.27822e-07
3.2126e-07
1.45097e-07
2.70741e-07
8.17794e-08
2.1505e-07
2.74628e-08
1.50556e-07
-1.18971e-08
7.83016e-08
-2.92127e-08
1.16058e-08
-3.87414e-08
-5.27233e-08
-3.96614e-08
-1.06142e-07
-3.57734e-08
-1.4384e-07
-2.39362e-08
-1.70414e-07
-1.56203e-07
2.3348e-07
-4.38922e-07
4.13256e-07
-6.30076e-07
5.36328e-07
-6.27383e-07
6.21277e-07
-5.37164e-07
6.84386e-07
-4.07803e-07
7.30753e-07
-2.59666e-07
7.51472e-07
-9.77005e-08
7.4133e-07
6.76859e-08
7.06783e-07
2.09228e-07
6.52064e-07
3.25718e-07
5.85981e-07
4.05577e-07
5.11952e-07
4.51532e-07
4.42767e-07
4.52635e-07
3.76956e-07
4.27856e-07
3.16897e-07
3.81475e-07
2.64536e-07
3.23133e-07
2.16919e-07
2.62879e-07
1.69901e-07
1.97911e-07
1.24572e-07
1.24729e-07
8.79429e-08
5.01705e-08
5.72061e-08
-1.88853e-08
3.13239e-08
-7.71677e-08
1.31626e-08
-1.20216e-07
1.93494e-09
-1.53392e-07
-1.52177e-07
2.01485e-07
-6.40872e-07
3.09096e-07
-7.37881e-07
3.55478e-07
-6.73995e-07
3.67805e-07
-5.49319e-07
3.65736e-07
-4.05387e-07
3.59488e-07
-2.52663e-07
3.56845e-07
-9.36552e-08
3.71066e-07
5.55845e-08
3.75959e-07
2.05978e-07
3.62219e-07
3.40315e-07
3.35862e-07
4.33309e-07
3.07116e-07
4.80803e-07
2.85317e-07
4.75275e-07
2.73471e-07
4.3972e-07
2.68231e-07
3.86884e-07
2.58058e-07
3.33056e-07
2.41821e-07
2.79461e-07
2.22624e-07
2.1756e-07
1.98766e-07
1.50015e-07
1.68512e-07
8.24969e-08
1.32265e-07
2.0468e-08
9.21203e-08
-3.25421e-08
5.3447e-08
-7.61999e-08
2.45513e-08
-1.18063e-07
-1.24738e-07
1.01274e-07
-7.42732e-07
1.3038e-07
-7.67546e-07
1.03796e-07
-6.47722e-07
7.00513e-08
-5.15585e-07
4.2421e-08
-3.77327e-07
2.48391e-08
-2.33522e-07
2.0668e-08
-8.61616e-08
2.7816e-08
5.33301e-08
1.25931e-08
2.22897e-07
4.86408e-10
3.54497e-07
-5.81152e-09
4.40937e-07
3.69515e-09
4.72582e-07
2.84789e-08
4.51458e-07
7.61266e-08
3.92417e-07
1.33497e-07
3.29574e-07
1.79029e-07
2.8768e-07
2.08972e-07
2.49848e-07
2.24716e-07
2.02896e-07
2.23476e-07
1.52662e-07
2.04463e-07
1.0386e-07
1.70139e-07
5.7836e-08
1.25212e-07
1.63965e-08
7.39491e-08
-2.03451e-08
3.83272e-08
-7.0822e-08
-8.39157e-08
8.77972e-09
-7.52111e-07
-4.87706e-08
-7.10654e-07
-1.21236e-07
-5.75528e-07
-1.90703e-07
-4.46103e-07
-2.57532e-07
-3.09998e-07
-3.20747e-07
-1.69444e-07
-3.77889e-07
-2.80057e-08
-4.28131e-07
1.04653e-07
-4.29556e-07
2.25244e-07
-3.98801e-07
3.24793e-07
-3.41136e-07
3.84196e-07
-2.65092e-07
3.97723e-07
-1.81255e-07
3.68475e-07
-9.8794e-08
3.10548e-07
-1.21484e-08
2.43305e-07
7.50403e-08
2.00712e-07
1.40089e-07
1.85374e-07
1.71073e-07
1.72948e-07
1.72075e-07
1.53344e-07
1.52916e-07
1.25565e-07
1.24745e-07
8.94735e-08
8.9906e-08
5.37117e-08
6.39095e-08
1.88618e-08
3.50197e-08
-3.48903e-08
-4.41707e-08
-8.11825e-08
-6.71299e-07
-2.1234e-07
-5.79677e-07
-3.32171e-07
-4.55734e-07
-4.50387e-07
-3.27513e-07
-5.60683e-07
-1.9916e-07
-6.49434e-07
-7.98954e-08
-7.02343e-07
2.56752e-08
-7.13513e-07
1.16693e-07
-6.81752e-07
1.94099e-07
-6.12777e-07
2.56796e-07
-5.2167e-07
2.93902e-07
-4.20682e-07
2.97645e-07
-3.2727e-07
2.75837e-07
-2.60033e-07
2.43521e-07
-2.26165e-07
2.09792e-07
-2.03197e-07
1.77345e-07
-1.65788e-07
1.48472e-07
-1.1471e-07
1.22221e-07
-5.78381e-08
9.82191e-08
-7.75429e-09
7.82708e-08
1.99063e-08
6.5052e-08
3.33388e-08
4.91289e-08
4.11768e-08
1.25718e-08
3.70824e-08
-9.7553e-09
-5.88666e-09
-1.72535e-07
-4.98695e-07
-3.42272e-07
-4.09948e-07
-5.03368e-07
-2.94319e-07
-6.4863e-07
-1.81718e-07
-7.7099e-07
-7.61318e-08
-8.62671e-07
1.25603e-08
-9.19138e-07
8.2729e-08
-9.44963e-07
1.43208e-07
-9.51287e-07
2.01035e-07
-9.41571e-07
2.47701e-07
-9.15862e-07
2.68695e-07
-8.8122e-07
2.63464e-07
-8.48132e-07
2.43005e-07
-8.15447e-07
2.10785e-07
-7.72756e-07
1.67007e-07
-7.07805e-07
1.11971e-07
-6.08646e-07
4.92413e-08
-4.73955e-07
-1.24533e-08
-3.17296e-07
-5.72514e-08
-1.64261e-07
-7.28828e-08
-4.10315e-08
-5.30572e-08
2.41115e-08
-1.46582e-08
4.94562e-08
8.7356e-09
3.16063e-08
4.87385e-09
3.25331e-08
-2.34312e-07
-2.64014e-07
-4.52074e-07
-1.91845e-07
-6.6032e-07
-8.56232e-08
-8.54911e-07
1.34348e-08
-1.02644e-06
9.59512e-08
-1.16938e-06
1.56024e-07
-1.29027e-06
2.04133e-07
-1.39938e-06
2.52796e-07
-1.49582e-06
2.97867e-07
-1.57024e-06
3.22536e-07
-1.61944e-06
3.18215e-07
-1.64408e-06
2.8823e-07
-1.63804e-06
2.3694e-07
-1.59309e-06
1.65575e-07
-1.50439e-06
7.78924e-08
-1.37267e-06
-2.02837e-08
-1.20259e-06
-1.21348e-07
-9.96402e-07
-2.18831e-07
-7.59875e-07
-2.93837e-07
-5.11974e-07
-3.19895e-07
-2.86013e-07
-2.77816e-07
-1.18997e-07
-1.7269e-07
-6.23268e-08
-5.9429e-08
-2.63983e-08
-2.1085e-09
1.1648e-09
-2.70021e-07
6.57468e-09
-5.31864e-07
7.02637e-08
-7.77984e-07
1.60953e-07
-1.0078e-06
2.43681e-07
-1.21587e-06
3.04469e-07
-1.40448e-06
3.45022e-07
-1.58105e-06
3.81022e-07
-1.74764e-06
4.19771e-07
-1.89544e-06
4.46099e-07
-2.01406e-06
4.41407e-07
-2.10122e-06
4.05546e-07
-2.15939e-06
3.46391e-07
-2.1848e-06
2.62077e-07
-2.16966e-06
1.49875e-07
-2.10458e-06
1.20147e-08
-1.98351e-06
-1.42195e-07
-1.80628e-06
-2.99546e-07
-1.57677e-06
-4.49203e-07
-1.30017e-06
-5.71321e-07
-9.8588e-07
-6.34843e-07
-6.61706e-07
-6.01962e-07
-3.80103e-07
-4.57513e-07
-1.88929e-07
-2.34476e-07
-1.25197e-07
-8.48712e-08
-1.14908e-07
-2.74889e-07
2.81866e-07
-5.47111e-07
3.42979e-07
-8.03859e-07
4.18151e-07
-1.04315e-06
4.834e-07
-1.26215e-06
5.23831e-07
-1.463e-06
5.46184e-07
-1.65095e-06
5.69396e-07
-1.82423e-06
5.93412e-07
-1.97429e-06
5.96441e-07
-2.09695e-06
5.64414e-07
-2.19361e-06
5.02338e-07
-2.26155e-06
4.14101e-07
-2.29343e-06
2.93379e-07
-2.28478e-06
1.40232e-07
-2.23703e-06
-3.69927e-08
-2.1492e-06
-2.3143e-07
-2.01906e-06
-4.31269e-07
-1.84656e-06
-6.23241e-07
-1.62324e-06
-7.96414e-07
-1.33955e-06
-9.19731e-07
-1.00289e-06
-9.40306e-07
-6.45612e-07
-8.1242e-07
-3.43408e-07
-5.49676e-07
-1.42413e-07
-2.67101e-07
-2.64496e-07
-2.55824e-07
5.38363e-07
-5.13348e-07
6.01111e-07
-7.60131e-07
6.65482e-07
-9.90796e-07
7.14607e-07
-1.20068e-06
7.34132e-07
-1.39202e-06
7.37965e-07
-1.5694e-06
7.47076e-07
-1.73049e-06
7.54912e-07
-1.86903e-06
7.3565e-07
-1.98255e-06
6.78137e-07
-2.06843e-06
5.88513e-07
-2.12037e-06
4.65614e-07
-2.13222e-06
3.04688e-07
-2.10437e-06
1.1084e-07
-2.04172e-06
-1.01157e-07
-1.95611e-06
-3.19085e-07
-1.85311e-06
-5.36243e-07
-1.73128e-06
-7.47215e-07
-1.58547e-06
-9.44217e-07
-1.39643e-06
-1.11065e-06
-1.14338e-06
-1.19509e-06
-8.24382e-07
-1.13629e-06
-4.55779e-07
-9.07962e-07
-1.7039e-07
-5.67769e-07
-4.33423e-07
-2.22172e-07
7.61539e-07
-4.51541e-07
8.31316e-07
-6.75527e-07
8.90294e-07
-8.85156e-07
9.24785e-07
-1.07408e-06
9.23648e-07
-1.24441e-06
9.08629e-07
-1.40004e-06
9.03349e-07
-1.53913e-06
8.94842e-07
-1.65693e-06
8.53972e-07
-1.74898e-06
7.71405e-07
-1.8119e-06
6.51592e-07
-1.83742e-06
4.91616e-07
-1.82214e-06
2.88327e-07
-1.76669e-06
5.43193e-08
-1.68493e-06
-1.84877e-07
-1.58606e-06
-4.20016e-07
-1.48026e-06
-6.44223e-07
-1.37762e-06
-8.52148e-07
-1.28211e-06
-1.04196e-06
-1.18266e-06
-1.21226e-06
-1.03847e-06
-1.34194e-06
-8.17175e-07
-1.35612e-06
-5.09937e-07
-1.2281e-06
-1.72681e-07
-9.0033e-07
-6.1504e-07
-1.839e-07
9.46477e-07
-3.77939e-07
1.02646e-06
-5.71235e-07
1.0842e-06
-7.52494e-07
1.10688e-06
-9.14458e-07
1.08585e-06
-1.0573e-06
1.05244e-06
-1.18549e-06
1.03201e-06
-1.29771e-06
1.00866e-06
-1.38997e-06
9.47326e-07
-1.45788e-06
8.41302e-07
-1.49639e-06
6.90573e-07
-1.49743e-06
4.93921e-07
-1.45558e-06
2.45313e-07
-1.37425e-06
-2.63065e-08
-1.27625e-06
-2.86012e-07
-1.16473e-06
-5.32379e-07
-1.05137e-06
-7.61206e-07
-9.45562e-07
-9.5979e-07
-8.57483e-07
-1.13344e-06
-7.88727e-07
-1.28358e-06
-7.26932e-07
-1.40737e-06
-6.35522e-07
-1.45267e-06
-4.49123e-07
-1.41084e-06
-1.79211e-07
-1.18506e-06
-7.96228e-07
-1.40544e-07
1.08824e-06
-3.00297e-07
1.18687e-06
-4.5974e-07
1.24451e-06
-6.10079e-07
1.25717e-06
-7.41243e-07
1.21834e-06
-8.54306e-07
1.165e-06
-9.50079e-07
1.13082e-06
-1.03296e-06
1.09065e-06
-1.09362e-06
1.01311e-06
-1.13453e-06
8.80242e-07
-1.14068e-06
7.0257e-07
-1.11291e-06
4.62117e-07
-1.03029e-06
1.71632e-07
-9.27652e-07
-1.38063e-07
-8.15034e-07
-3.93608e-07
-7.06195e-07
-6.50391e-07
-5.95306e-07
-8.71192e-07
-5.01433e-07
-1.06142e-06
-4.22794e-07
-1.21351e-06
-3.74422e-07
-1.33946e-06
-3.48014e-07
-1.43397e-06
-3.31112e-07
-1.47101e-06
-2.991e-07
-1.4521e-06
-1.52739e-07
-1.33114e-06
-9.60489e-07
-9.84357e-08
1.18767e-06
-2.22865e-07
1.31231e-06
-3.48365e-07
1.37017e-06
-4.65716e-07
1.37578e-06
-5.66891e-07
1.31878e-06
-6.45802e-07
1.24657e-06
-7.09667e-07
1.19302e-06
-7.53383e-07
1.13975e-06
-7.83476e-07
1.04041e-06
-7.82687e-07
8.86625e-07
-7.57057e-07
6.71456e-07
-6.77141e-07
3.97315e-07
-5.49216e-07
2.92354e-08
-4.24257e-07
-2.49193e-07
-3.3227e-07
-5.03171e-07
-2.30297e-07
-7.49616e-07
-1.42313e-07
-9.72767e-07
-6.10062e-08
-1.1445e-06
-5.26958e-09
-1.28039e-06
3.15422e-08
-1.37743e-06
3.56918e-08
-1.44382e-06
5.69845e-09
-1.44495e-06
-6.89929e-08
-1.37491e-06
-1.0101e-07
-1.32205e-06
-1.06719e-06
-5.92599e-08
1.24837e-06
-1.48288e-07
1.40238e-06
-2.39284e-07
1.46236e-06
-3.2617e-07
1.46284e-06
-3.96675e-07
1.39047e-06
-4.45046e-07
1.29441e-06
-4.7053e-07
1.22038e-06
-4.79321e-07
1.14749e-06
-4.67528e-07
1.03178e-06
-4.338e-07
8.50109e-07
-3.59653e-07
6.07843e-07
-2.66705e-07
2.94e-07
-1.11106e-07
-1.08239e-07
-3.59786e-08
-3.43864e-07
8.74014e-08
-6.26224e-07
1.96196e-07
-8.74146e-07
2.91206e-07
-1.07228e-06
3.60423e-07
-1.22467e-06
4.06979e-07
-1.33204e-06
4.23811e-07
-1.40212e-06
4.09984e-07
-1.43437e-06
3.62856e-07
-1.40148e-06
2.42789e-07
-1.27802e-06
1.12717e-07
-1.1985e-06
-9.6926e-07
-2.27977e-08
1.2733e-06
-7.72467e-08
1.45854e-06
-1.35758e-07
1.52199e-06
-1.92317e-07
1.52028e-06
-2.36592e-07
1.43493e-06
-2.55369e-07
1.31271e-06
-2.45942e-07
1.21016e-06
-2.12641e-07
1.11365e-06
-1.60916e-07
9.78986e-07
-9.30976e-08
7.84239e-07
-1.58694e-08
5.26895e-07
8.86658e-08
2.00125e-07
2.32041e-07
-2.59697e-07
4.04039e-07
-5.17795e-07
5.31511e-07
-7.62235e-07
6.35074e-07
-9.82827e-07
7.16842e-07
-1.16163e-06
7.75931e-07
-1.28995e-06
8.07903e-07
-1.37137e-06
8.12163e-07
-1.41219e-06
7.84799e-07
-1.41425e-06
7.30223e-07
-1.35927e-06
6.58688e-07
-1.20906e-06
4.46483e-07
-1.01002e-06
-5.23665e-07
3.21336e-08
1.24314e-06
3.4589e-08
1.45777e-06
3.1054e-08
1.52679e-06
2.45623e-08
1.52741e-06
1.86871e-08
1.44052e-06
3.04671e-08
1.29973e-06
7.31158e-08
1.16574e-06
1.44413e-07
1.04051e-06
2.35387e-07
8.86353e-07
3.38189e-07
6.79934e-07
4.53039e-07
4.15319e-07
5.64044e-07
8.59917e-08
5.84792e-07
-2.80557e-07
6.40032e-07
-5.76441e-07
7.01278e-07
-8.27055e-07
7.42585e-07
-1.02852e-06
7.57738e-07
-1.18115e-06
7.51425e-07
-1.28865e-06
7.2933e-07
-1.3541e-06
6.94529e-07
-1.38299e-06
6.51104e-07
-1.37572e-06
6.13733e-07
-1.32547e-06
6.12145e-07
-1.21969e-06
6.44411e-07
-1.04079e-06
-8.87026e-07
1.00382e-06
5.96373e-08
1.18608e-06
8.88415e-08
1.43039e-06
1.1119e-07
1.50557e-06
1.3035e-07
1.50891e-06
1.44955e-07
1.42508e-06
1.66897e-07
1.27641e-06
2.17444e-07
1.11269e-06
3.0456e-07
9.51301e-07
4.19884e-07
7.69269e-07
5.51475e-07
5.48315e-07
6.8169e-07
2.81039e-07
7.95917e-07
-2.51458e-08
8.68054e-07
-3.5482e-07
9.38771e-07
-6.49088e-07
9.9268e-07
-8.83252e-07
1.02283e-06
-1.06089e-06
1.03131e-06
-1.19216e-06
1.02264e-06
-1.28262e-06
1.00168e-06
-1.33598e-06
9.72783e-07
-1.35627e-06
9.41025e-07
-1.34631e-06
9.16497e-07
-1.30338e-06
9.25801e-07
-1.22592e-06
1.0069e-06
-1.12423e-06
-1.01587e-06
1.13789e-06
8.1131e-08
1.10708e-06
1.31552e-07
1.38154e-06
1.75159e-07
1.46326e-06
2.14742e-07
1.46915e-06
2.47033e-07
1.39238e-06
2.76932e-07
1.24464e-06
3.25388e-07
1.06195e-06
4.06464e-07
8.68128e-07
5.1723e-07
6.56441e-07
6.45139e-07
4.18078e-07
7.76787e-07
1.5282e-07
8.9051e-07
-1.43017e-07
9.85098e-07
-4.49415e-07
1.05761e-06
-7.22481e-07
1.11333e-06
-9.40022e-07
1.15301e-06
-1.10177e-06
1.17546e-06
-1.21585e-06
1.18281e-06
-1.29131e-06
1.17807e-06
-1.33242e-06
1.16667e-06
-1.34582e-06
1.15577e-06
-1.33563e-06
1.15331e-06
-1.29949e-06
1.16602e-06
-1.23867e-06
1.20507e-06
-1.15989e-06
-1.06927e-06
1.26013e-06
9.7368e-08
1.01262e-06
1.62735e-07
1.31803e-06
2.21076e-07
1.40572e-06
2.76642e-07
1.41428e-06
3.2278e-07
1.34541e-06
3.60867e-07
1.20498e-06
4.04176e-07
1.01706e-06
4.66419e-07
8.03971e-07
5.50616e-07
5.71567e-07
6.49893e-07
3.19306e-07
7.47632e-07
5.05176e-08
8.50161e-07
-2.41828e-07
9.43177e-07
-5.43103e-07
1.02424e-06
-8.0394e-07
1.0929e-06
-1.00908e-06
1.14703e-06
-1.15629e-06
1.18717e-06
-1.25641e-06
1.21667e-06
-1.3212e-06
1.24158e-06
-1.35761e-06
1.26444e-06
-1.3686e-06
1.28584e-06
-1.35641e-06
1.31082e-06
-1.32361e-06
1.34527e-06
-1.27082e-06
1.38878e-06
-1.20128e-06
-1.11887e-06
1.44015e-06
1.08287e-07
9.06617e-07
1.82256e-07
1.24577e-06
2.49336e-07
1.34013e-06
3.1396e-07
1.34962e-06
3.70629e-07
1.28884e-06
4.16264e-07
1.15884e-06
4.56432e-07
9.76015e-07
5.01268e-07
7.58908e-07
5.54061e-07
5.18394e-07
6.10754e-07
2.61985e-07
6.7294e-07
-5.72559e-09
7.42835e-07
-3.14393e-07
8.1663e-07
-6.15658e-07
8.94578e-07
-8.81489e-07
9.73602e-07
-1.08793e-06
1.04941e-06
-1.23197e-06
1.1185e-06
-1.32534e-06
1.17988e-06
-1.38239e-06
1.23527e-06
-1.41268e-06
1.28754e-06
-1.4203e-06
1.33934e-06
-1.40745e-06
1.39329e-06
-1.37636e-06
1.45192e-06
-1.32779e-06
1.51455e-06
-1.26263e-06
-1.18149e-06
1.57901e-06
1.12892e-07
7.97568e-07
1.91054e-07
1.16992e-06
2.60499e-07
1.27183e-06
3.28688e-07
1.28331e-06
3.89985e-07
1.22794e-06
4.39976e-07
1.1096e-06
4.78691e-07
9.37996e-07
5.10697e-07
7.28253e-07
5.38643e-07
4.9307e-07
5.61495e-07
2.43221e-07
5.76668e-07
-2.29747e-08
5.96903e-07
-3.293e-07
6.37085e-07
-6.55111e-07
7.08434e-07
-9.52041e-07
7.99143e-07
-1.17797e-06
8.9697e-07
-1.32917e-06
9.94056e-07
-1.42183e-06
1.08638e-06
-1.4741e-06
1.17252e-06
-1.49816e-06
1.25353e-06
-1.50056e-06
1.33173e-06
-1.48473e-06
1.40879e-06
-1.45238e-06
1.48559e-06
-1.40397e-06
1.56373e-06
-1.33907e-06
-1.26006e-06
1.643e-06
1.07866e-07
6.92704e-07
1.88414e-07
1.09164e-06
2.5787e-07
1.20499e-06
3.23121e-07
1.21926e-06
3.834e-07
1.17017e-06
4.3235e-07
1.06291e-06
4.67682e-07
9.05894e-07
4.88811e-07
7.1099e-07
4.9495e-07
4.9126e-07
4.81414e-07
2.61078e-07
4.42399e-07
2.71172e-08
3.93944e-07
-2.79839e-07
4.16972e-07
-6.74983e-07
5.04813e-07
-1.03787e-06
6.22392e-07
-1.29409e-06
7.46424e-07
-1.452e-06
8.66861e-07
-1.54119e-06
9.80131e-07
-1.58639e-06
1.08554e-06
-1.60263e-06
1.18379e-06
-1.5979e-06
1.2763e-06
-1.57644e-06
1.36473e-06
-1.54026e-06
1.45152e-06
-1.48967e-06
1.53802e-06
-1.42536e-06
-1.34818e-06
1.62681e-06
9.30993e-08
6.04964e-07
1.75064e-07
1.01275e-06
2.42481e-07
1.13974e-06
3.02973e-07
1.16265e-06
3.56262e-07
1.12072e-06
3.98871e-07
1.02512e-06
4.25847e-07
8.84342e-07
4.34047e-07
7.0965e-07
4.18613e-07
5.15347e-07
3.7235e-07
3.19014e-07
2.66233e-07
1.41004e-07
1.84833e-07
-1.88057e-07
2.47598e-07
-7.33149e-07
3.7541e-07
-1.16262e-06
5.17493e-07
-1.43403e-06
6.55787e-07
-1.5886e-06
7.85106e-07
-1.66909e-06
9.04115e-07
-1.70417e-06
1.0129e-06
-1.71034e-06
1.11254e-06
-1.6966e-06
1.20479e-06
-1.66795e-06
1.29209e-06
-1.6269e-06
1.37716e-06
-1.57463e-06
1.46361e-06
-1.51142e-06
-1.43845e-06
1.55404e-06
7.32579e-08
5.34694e-07
1.52527e-07
9.36375e-07
2.18664e-07
1.07796e-06
2.72466e-07
1.11342e-06
3.15953e-07
1.08215e-06
3.47807e-07
1.00084e-06
3.62765e-07
8.78009e-07
3.56251e-07
7.2649e-07
3.2187e-07
5.61122e-07
2.5347e-07
4.02217e-07
1.41315e-07
2.76714e-07
9.61067e-08
-1.31144e-07
2.05963e-07
-8.36928e-07
3.46868e-07
-1.29984e-06
4.90051e-07
-1.5747e-06
6.27037e-07
-1.72369e-06
7.5444e-07
-1.79494e-06
8.70793e-07
-1.81922e-06
9.75945e-07
-1.81437e-06
1.07102e-06
-1.79076e-06
1.15824e-06
-1.75446e-06
1.2405e-06
-1.70881e-06
1.32132e-06
-1.65525e-06
1.40418e-06
-1.5941e-06
-1.52585e-06
1.49141e-06
5.52186e-08
4.86576e-07
1.27086e-07
8.69333e-07
1.89354e-07
1.02027e-06
2.35819e-07
1.07117e-06
2.70732e-07
1.05748e-06
2.88842e-07
9.91288e-07
2.89928e-07
8.88358e-07
2.67565e-07
7.61398e-07
2.20284e-07
6.25055e-07
1.40939e-07
5.02953e-07
5.25151e-08
3.86019e-07
9.78038e-08
-1.62141e-07
2.14308e-07
-9.46639e-07
3.49329e-07
-1.43092e-06
4.89379e-07
-1.71217e-06
6.25793e-07
-1.85818e-06
7.53605e-07
-1.92122e-06
8.70574e-07
-1.9349e-06
9.76337e-07
-1.91905e-06
1.07206e-06
-1.88558e-06
1.15987e-06
-1.84167e-06
1.24262e-06
-1.7912e-06
1.32343e-06
-1.73575e-06
1.40466e-06
-1.67565e-06
-1.60958e-06
1.48855e-06
4.08481e-08
4.48405e-07
1.02376e-07
8.1163e-07
1.58186e-07
9.68784e-07
2.00445e-07
1.03952e-06
2.22857e-07
1.04091e-06
2.29794e-07
9.96536e-07
2.1771e-07
9.13804e-07
1.83812e-07
8.10467e-07
1.15735e-07
7.1145e-07
1.14157e-08
6.26077e-07
-4.00445e-08
4.59382e-07
8.86744e-08
-2.75563e-07
2.13292e-07
-1.0655e-06
3.50831e-07
-1.56482e-06
4.94468e-07
-1.85333e-06
6.35032e-07
-1.9969e-06
7.67301e-07
-2.052e-06
8.88984e-07
-2.05533e-06
9.99735e-07
-2.02874e-06
1.10067e-06
-1.98568e-06
1.19388e-06
-1.93422e-06
1.28181e-06
-1.87871e-06
1.36666e-06
-1.82069e-06
1.45103e-06
-1.75954e-06
-1.69452e-06
1.53582e-06
3.2853e-08
4.22938e-07
8.423e-08
7.64888e-07
1.34117e-07
9.25784e-07
1.65333e-07
1.01158e-06
1.8168e-07
1.03816e-06
1.77628e-07
1.01179e-06
1.50126e-07
9.5256e-07
8.58476e-08
8.89182e-07
-2.03087e-08
8.30932e-07
-1.10091e-07
7.33531e-07
-7.30999e-08
4.47837e-07
8.2569e-08
-4.22085e-07
2.20521e-07
-1.1971e-06
3.6475e-07
-1.70555e-06
5.12973e-07
-1.99928e-06
6.57119e-07
-2.13935e-06
7.92404e-07
-2.18591e-06
9.16847e-07
-2.1786e-06
1.03041e-06
-2.14131e-06
1.13453e-06
-2.08896e-06
1.23149e-06
-2.03059e-06
1.32377e-06
-1.97064e-06
1.4139e-06
-1.91026e-06
1.50348e-06
-1.84926e-06
-1.78568e-06
1.59503e-06
2.91285e-08
3.91886e-07
7.43978e-08
7.21252e-07
1.1512e-07
8.88171e-07
1.42394e-07
9.96648e-07
1.45303e-07
1.03866e-06
1.26622e-07
1.03987e-06
6.80693e-08
1.02093e-06
-3.94244e-08
1.00635e-06
-1.58363e-07
9.60522e-07
-1.98709e-07
7.89781e-07
-7.62759e-08
3.46218e-07
1.04239e-07
-5.91037e-07
2.52708e-07
-1.34214e-06
4.02451e-07
-1.85279e-06
5.53202e-07
-2.1482e-06
6.97661e-07
-2.28237e-06
8.31756e-07
-2.31879e-06
9.54188e-07
-2.29998e-06
1.06564e-06
-2.25184e-06
1.16823e-06
-2.19079e-06
1.26482e-06
-2.12656e-06
1.35828e-06
-2.06359e-06
1.45102e-06
-2.0029e-06
1.54576e-06
-1.94339e-06
-1.88416e-06
1.64445e-06
3.3919e-08
3.60779e-07
7.40857e-08
6.83187e-07
1.08115e-07
8.59735e-07
1.19533e-07
9.82031e-07
1.13412e-07
1.05563e-06
6.66495e-08
1.08931e-06
-3.06968e-08
1.12318e-06
-1.62413e-07
1.14309e-06
-2.5722e-07
1.06249e-06
-2.3051e-07
7.75022e-07
-3.74053e-08
1.7313e-07
1.55478e-07
-7.82916e-07
3.14406e-07
-1.49768e-06
4.6752e-07
-2.00403e-06
6.17751e-07
-2.29708e-06
7.58824e-07
-2.42232e-06
8.87815e-07
-2.44679e-06
1.0044e-06
-2.41567e-06
1.11012e-06
-2.35674e-06
1.20787e-06
-2.28784e-06
1.30102e-06
-2.21917e-06
1.39271e-06
-2.1549e-06
1.48577e-06
-2.09541e-06
1.58221e-06
-2.03962e-06
-1.98594e-06
1.68443e-06
4.45817e-08
3.09017e-07
8.13375e-08
6.44176e-07
1.03495e-07
8.33984e-07
1.1144e-07
9.83033e-07
8.19343e-08
1.07972e-06
4.34135e-09
1.16805e-06
-1.25411e-07
1.25359e-06
-2.49304e-07
1.2699e-06
-2.9672e-07
1.11252e-06
-2.04801e-07
6.88887e-07
4.15943e-08
-7.63272e-08
2.45011e-07
-9.81572e-07
4.08831e-07
-1.66147e-06
5.61394e-07
-2.15603e-06
7.06641e-07
-2.44163e-06
8.39737e-07
-2.55469e-06
9.59563e-07
-2.56589e-06
1.06693e-06
-2.52232e-06
1.16421e-06
-2.45335e-06
1.25495e-06
-2.37797e-06
1.34283e-06
-2.30654e-06
1.431e-06
-2.24263e-06
1.52174e-06
-2.18587e-06
1.61702e-06
-2.13443e-06
-2.0867e-06
1.71815e-06
6.47581e-08
2.37141e-07
9.7098e-08
6.0702e-07
1.18006e-07
8.13611e-07
1.08896e-07
9.82805e-07
5.59745e-08
1.13329e-06
-5.74713e-08
1.27779e-06
-1.85996e-07
1.3791e-06
-2.45404e-07
1.32706e-06
-2.28202e-07
1.09376e-06
-1.08007e-07
5.56536e-07
1.65728e-07
-3.49155e-07
3.71304e-07
-1.1925e-06
5.38045e-07
-1.82863e-06
6.8468e-07
-2.30284e-06
8.18838e-07
-2.57564e-06
9.38027e-07
-2.67354e-06
1.04369e-06
-2.67111e-06
1.13788e-06
-2.616e-06
1.22374e-06
-2.53868e-06
1.30529e-06
-2.45902e-06
1.38625e-06
-2.38709e-06
1.46934e-06
-2.32537e-06
1.55633e-06
-2.27249e-06
1.64835e-06
-2.22607e-06
-2.18431e-06
1.74631e-06
9.14755e-08
1.32585e-07
1.29205e-07
5.60811e-07
1.46796e-07
7.86906e-07
1.25724e-07
1.00307e-06
3.82901e-08
1.2118e-06
-8.65225e-08
1.39562e-06
-1.71617e-07
1.45805e-06
-1.77042e-07
1.3262e-06
-7.78295e-08
9.78749e-07
9.31765e-08
3.66249e-07
3.31811e-07
-5.99706e-07
5.38802e-07
-1.40067e-06
6.98805e-07
-1.99119e-06
8.33571e-07
-2.43873e-06
9.50364e-07
-2.69286e-06
1.04954e-06
-2.77276e-06
1.13602e-06
-2.75743e-06
1.21311e-06
-2.6928e-06
1.28466e-06
-2.60986e-06
1.35505e-06
-2.52905e-06
1.42774e-06
-2.45944e-06
1.50469e-06
-2.40204e-06
1.58692e-06
-2.35437e-06
1.67492e-06
-2.31381e-06
-2.2784e-06
1.76942e-06
1.26935e-07
-2.16795e-08
1.85457e-07
4.89925e-07
1.98381e-07
7.67608e-07
1.45919e-07
1.0443e-06
3.91404e-08
1.31073e-06
-5.97437e-08
1.48454e-06
-8.35658e-08
1.4708e-06
-1.18979e-08
1.24004e-06
9.68429e-08
8.4638e-07
2.97435e-07
1.37572e-07
5.34264e-07
-8.41399e-07
7.32331e-07
-1.60545e-06
8.80244e-07
-2.14168e-06
9.98495e-07
-2.55853e-06
1.09294e-06
-2.7881e-06
1.16729e-06
-2.84748e-06
1.23099e-06
-2.8212e-06
1.28828e-06
-2.74999e-06
1.34377e-06
-2.66515e-06
1.402e-06
-2.58703e-06
1.46574e-06
-2.52294e-06
1.53597e-06
-2.47202e-06
1.61269e-06
-2.43094e-06
1.69605e-06
-2.39674e-06
-2.36816e-06
1.78602e-06
1.61559e-07
-2.08537e-07
2.58333e-07
3.81181e-07
2.43389e-07
7.71799e-07
1.65257e-07
1.11416e-06
7.38415e-08
1.39109e-06
3.0599e-08
1.51396e-06
6.34866e-08
1.42221e-06
1.53633e-07
1.12804e-06
2.59097e-07
7.11443e-07
5.19115e-07
-1.37543e-07
7.6307e-07
-1.09543e-06
9.37952e-07
-1.78391e-06
1.06664e-06
-2.2737e-06
1.16597e-06
-2.6598e-06
1.23477e-06
-2.85802e-06
1.28196e-06
-2.89528e-06
1.32158e-06
-2.86112e-06
1.35823e-06
-2.78673e-06
1.39758e-06
-2.70444e-06
1.44401e-06
-2.63333e-06
1.49904e-06
-2.57783e-06
1.5623e-06
-2.53516e-06
1.63305e-06
-2.50137e-06
1.71049e-06
-2.47415e-06
-2.45212e-06
1.7948e-06
1.64926e-07
-4.11528e-07
2.89979e-07
2.42199e-07
2.60835e-07
7.9233e-07
1.92545e-07
1.1737e-06
1.49245e-07
1.42061e-06
1.59431e-07
1.48935e-06
2.37282e-07
1.32623e-06
3.40944e-07
9.9978e-07
5.2671e-07
4.9669e-07
7.92916e-07
-4.17464e-07
9.91387e-07
-1.29952e-06
1.13253e-06
-1.93055e-06
1.24188e-06
-2.38626e-06
1.32163e-06
-2.74161e-06
1.36374e-06
-2.90139e-06
1.38426e-06
-2.91658e-06
1.40083e-06
-2.87814e-06
1.41782e-06
-2.80395e-06
1.44277e-06
-2.72946e-06
1.47908e-06
-2.66962e-06
1.52642e-06
-2.62511e-06
1.58305e-06
-2.59166e-06
1.64729e-06
-2.56566e-06
1.71862e-06
-2.54509e-06
-2.52991e-06
1.79649e-06
1.54896e-07
-5.84454e-07
2.68258e-07
1.2035e-07
2.60796e-07
7.92604e-07
2.41503e-07
1.1824e-06
2.59174e-07
1.39488e-06
3.21812e-07
1.412e-06
4.34152e-07
1.19691e-06
5.74625e-07
8.36699e-07
8.16221e-07
2.33774e-07
1.03831e-06
-6.48812e-07
1.18851e-06
-1.45641e-06
1.3022e-06
-2.04827e-06
1.39448e-06
-2.48149e-06
1.4527e-06
-2.80184e-06
1.46878e-06
-2.9188e-06
1.46797e-06
-2.91666e-06
1.46241e-06
-2.87315e-06
1.46296e-06
-2.80484e-06
1.47719e-06
-2.74387e-06
1.50608e-06
-2.69857e-06
1.54715e-06
-2.66619e-06
1.59757e-06
-2.64211e-06
1.65572e-06
-2.62356e-06
1.72051e-06
-2.61e-06
-2.60125e-06
1.79211e-06
1.05415e-07
-6.99937e-07
2.19364e-07
-3.33437e-09
2.62035e-07
7.43655e-07
3.06888e-07
1.1352e-06
3.83619e-07
1.30601e-06
5.05224e-07
1.2799e-06
6.50924e-07
1.03606e-06
8.24366e-07
6.46338e-07
1.05261e-06
-7.7441e-09
1.22289e-06
-8.26429e-07
1.33844e-06
-1.57659e-06
1.43758e-06
-2.15076e-06
1.51703e-06
-2.56369e-06
1.55138e-06
-2.83808e-06
1.54395e-06
-2.91268e-06
1.52427e-06
-2.8979e-06
1.50125e-06
-2.85076e-06
1.49184e-06
-2.79585e-06
1.50042e-06
-2.75269e-06
1.52472e-06
-2.72302e-06
1.56076e-06
-2.7023e-06
1.60557e-06
-2.68689e-06
1.65745e-06
-2.67561e-06
1.71617e-06
-2.66842e-06
-2.66632e-06
1.78121e-06
-6.05952e-09
-6.99576e-07
1.69186e-07
-1.80049e-07
2.76517e-07
6.35544e-07
3.7449e-07
1.02898e-06
5.07455e-07
1.17019e-06
6.72325e-07
1.10537e-06
8.47407e-07
8.4965e-07
1.02667e-06
4.53986e-07
1.20417e-06
-1.93696e-07
1.32889e-06
-9.56196e-07
1.43478e-06
-1.68563e-06
1.53518e-06
-2.25433e-06
1.60435e-06
-2.63481e-06
1.61374e-06
-2.84902e-06
1.5843e-06
-2.88442e-06
1.54789e-06
-2.86238e-06
1.51782e-06
-2.82134e-06
1.50632e-06
-2.7848e-06
1.51361e-06
-2.76028e-06
1.53521e-06
-2.7448e-06
1.56689e-06
-2.7341e-06
1.60626e-06
-2.72637e-06
1.65248e-06
-2.72168e-06
1.70491e-06
-2.72107e-06
-2.72498e-06
1.76374e-06
-7.28071e-08
-6.2359e-07
1.27815e-07
-3.81258e-07
2.91656e-07
4.69238e-07
4.38588e-07
8.8401e-07
6.0159e-07
1.00032e-06
7.86231e-07
9.14848e-07
9.64182e-07
6.63356e-07
1.12188e-06
2.87957e-07
1.24395e-06
-3.20685e-07
1.3577e-06
-1.07276e-06
1.48653e-06
-1.81726e-06
1.59728e-06
-2.36623e-06
1.65048e-06
-2.68972e-06
1.63139e-06
-2.83123e-06
1.58937e-06
-2.84343e-06
1.54658e-06
-2.8204e-06
1.51845e-06
-2.79383e-06
1.51012e-06
-2.77693e-06
1.5182e-06
-2.76868e-06
1.53766e-06
-2.76448e-06
1.5653e-06
-2.76188e-06
1.59978e-06
-2.76089e-06
1.64047e-06
-2.7626e-06
1.68745e-06
-2.76786e-06
-2.7778e-06
1.74018e-06
-7.6713e-08
-5.44541e-07
6.3482e-08
-5.15008e-07
2.93975e-07
2.41318e-07
4.72657e-07
7.0101e-07
6.49668e-07
8.23402e-07
8.2668e-07
7.34037e-07
9.83191e-07
5.02631e-07
1.09727e-06
1.69436e-07
1.18978e-06
-4.15368e-07
1.34592e-06
-1.2305e-06
1.51894e-06
-1.99043e-06
1.62949e-06
-2.47852e-06
1.65835e-06
-2.7194e-06
1.61912e-06
-2.79289e-06
1.57016e-06
-2.79527e-06
1.53003e-06
-2.78096e-06
1.5091e-06
-2.77346e-06
1.50583e-06
-2.77409e-06
1.51484e-06
-2.77801e-06
1.5322e-06
-2.78205e-06
1.55618e-06
-2.78602e-06
1.58627e-06
-2.79113e-06
1.62241e-06
-2.79866e-06
1.66411e-06
-2.8098e-06
-2.82495e-06
1.71134e-06
-4.77468e-08
-4.90148e-07
1.03827e-08
-5.68444e-07
2.781e-07
-2.65969e-08
4.81869e-07
5.01161e-07
6.49908e-07
6.53269e-07
8.02574e-07
5.81119e-07
9.24611e-07
3.79077e-07
9.80999e-07
1.13092e-07
1.10754e-06
-5.41787e-07
1.34462e-06
-1.467e-06
1.54356e-06
-2.19029e-06
1.63435e-06
-2.56884e-06
1.62819e-06
-2.71386e-06
1.58019e-06
-2.74551e-06
1.53323e-06
-2.74893e-06
1.50427e-06
-2.75257e-06
1.49325e-06
-2.76293e-06
1.49462e-06
-2.77585e-06
1.50387e-06
-2.78756e-06
1.51913e-06
-2.79753e-06
1.54004e-06
-2.80708e-06
1.56659e-06
-2.81776e-06
1.59852e-06
-2.83082e-06
1.63574e-06
-2.84691e-06
-2.86697e-06
1.67764e-06
-2.10265e-08
-4.65208e-07
-1.32272e-08
-5.72588e-07
2.39849e-07
-2.73934e-07
4.54402e-07
2.85663e-07
6.09296e-07
5.01103e-07
7.32339e-07
4.59712e-07
8.07865e-07
3.06374e-07
8.32514e-07
9.10556e-08
1.06772e-06
-7.75256e-07
1.36799e-06
-1.76653e-06
1.54732e-06
-2.36805e-06
1.59223e-06
-2.61418e-06
1.56096e-06
-2.68253e-06
1.5196e-06
-2.70441e-06
1.48996e-06
-2.71969e-06
1.47607e-06
-2.73911e-06
1.47326e-06
-2.76051e-06
1.47707e-06
-2.77999e-06
1.48575e-06
-2.79649e-06
1.49921e-06
-2.81119e-06
1.51773e-06
-2.82575e-06
1.5413e-06
-2.84148e-06
1.56979e-06
-2.85927e-06
1.60264e-06
-2.87998e-06
-2.90403e-06
1.63973e-06
-9.12399e-09
-4.52267e-07
-3.36158e-08
-5.44051e-07
1.21899e-07
-4.27863e-07
3.63448e-07
4.86294e-08
5.1735e-07
3.50314e-07
6.13434e-07
3.67169e-07
6.33082e-07
2.91741e-07
7.29733e-07
-1.11381e-09
1.09274e-06
-1.13587e-06
1.39415e-06
-2.06597e-06
1.50988e-06
-2.48352e-06
1.51209e-06
-2.61511e-06
1.48698e-06
-2.65725e-06
1.46418e-06
-2.68168e-06
1.4518e-06
-2.70755e-06
1.44793e-06
-2.73554e-06
1.44889e-06
-2.76178e-06
1.45322e-06
-2.78459e-06
1.46121e-06
-2.8047e-06
1.47347e-06
-2.82361e-06
1.49024e-06
-2.84264e-06
1.51141e-06
-2.86273e-06
1.53661e-06
-2.88467e-06
1.5657e-06
-2.90901e-06
-2.93662e-06
1.59818e-06
8.73913e-09
-4.58384e-07