/*--------------------------------*- C++ -*----------------------------------*\
  =========                 |
  \\      /  F ield         | OpenFOAM: The Open Source CFD Toolbox
   \\    /   O peration     | Website:  https://openfoam.org
    \\  /    A nd           | Version:  13
     \\/     M anipulation  |
\*---------------------------------------------------------------------------*/
FoamFile
{
    format      ascii;
    class       volVectorField;
    location    "27";
    object      U;
}
// * * * * * * * * * * * * * * * * * * * * * * * * * * * * * * * * * * * * * //

dimensions      [0 1 -1 0 0 0 0];

internalField   nonuniform List<vector> 
6440
(
(5.74244e-07 -1.08407e-06 0)
(1.49854e-06 -1.36871e-06 0)
(2.65694e-06 -1.24704e-06 -1.77494e-21)
(3.55757e-06 -1.36759e-06 1.77004e-21)
(4.48702e-06 -1.6662e-06 0)
(5.29738e-06 -2.01587e-06 -3.38001e-21)
(5.93809e-06 -2.36279e-06 3.36164e-21)
(6.40163e-06 -2.68854e-06 0)
(6.6525e-06 -2.96806e-06 6.30952e-21)
(6.65455e-06 -3.16391e-06 -6.25922e-21)
(6.38725e-06 -3.24329e-06 -6.0367e-21)
(5.84781e-06 -3.1788e-06 5.09416e-23)
(5.05177e-06 -2.95271e-06 2.23973e-23)
(4.05194e-06 -2.56956e-06 5.77982e-21)
(2.93441e-06 -2.06829e-06 5.76114e-21)
(1.6804e-06 -1.45662e-06 -5.6894e-21)
(2.8779e-07 -6.8963e-07 0)
(-1.02037e-06 1.74945e-07 1.16538e-20)
(-2.10345e-06 1.01559e-06 2.7678e-22)
(-2.99193e-06 1.76556e-06 -1.15878e-20)
(-3.65311e-06 2.36041e-06 1.20152e-20)
(-4.00235e-06 2.61775e-06 -2.39612e-20)
(-4.56259e-06 2.44758e-06 1.19381e-20)
(-4.14191e-06 5.98131e-07 -1.23166e-20)
(-1.22536e-06 -1.85242e-06 -9.66094e-23)
(4.89678e-07 -2.95237e-06 0)
(1.26424e-06 -3.78155e-06 0)
(2.2678e-06 -3.50403e-06 -1.88544e-21)
(3.15257e-06 -3.6564e-06 1.88037e-21)
(4.08028e-06 -4.06415e-06 0)
(4.95223e-06 -4.50281e-06 -3.5992e-21)
(5.73099e-06 -4.88774e-06 3.58013e-21)
(6.37695e-06 -5.22044e-06 0)
(6.85575e-06 -5.47967e-06 0)
(7.13236e-06 -5.64858e-06 0)
(7.16891e-06 -5.70117e-06 0)
(6.9409e-06 -5.61586e-06 -6.29354e-21)
(6.43501e-06 -5.37386e-06 6.23003e-21)
(5.65765e-06 -4.96471e-06 0)
(4.64082e-06 -4.3959e-06 6.08152e-21)
(3.44911e-06 -3.69261e-06 -6.00744e-21)
(2.19169e-06 -2.85639e-06 0)
(9.44028e-07 -1.91395e-06 0)
(-2.90781e-07 -9.61719e-07 1.2518e-20)
(-1.39552e-06 -1.16711e-07 -1.23352e-20)
(-2.24997e-06 5.52685e-07 1.29982e-20)
(-2.75854e-06 7.92162e-07 -1.27949e-20)
(-3.75374e-06 4.38082e-07 -1.35453e-20)
(-4.59266e-06 -1.89601e-06 -4.58507e-22)
(-8.66495e-07 -5.71136e-06 1.03586e-20)
(4.00474e-07 -4.44066e-06 0)
(1.19553e-06 -5.69914e-06 0)
(2.11562e-06 -5.41612e-06 -1.92216e-21)
(3.0022e-06 -5.63588e-06 1.91733e-21)
(3.95374e-06 -6.06855e-06 0)
(4.91019e-06 -6.46052e-06 -3.66609e-21)
(5.77144e-06 -6.74508e-06 7.2343e-21)
(6.47957e-06 -6.90628e-06 -3.56576e-21)
(7.03383e-06 -6.97949e-06 6.82713e-21)
(7.36876e-06 -6.95319e-06 -6.7773e-21)
(7.44445e-06 -6.81215e-06 -6.49429e-21)
(7.22691e-06 -6.53723e-06 8.45557e-23)
(6.70611e-06 -6.11349e-06 6.29254e-21)
(5.8977e-06 -5.53188e-06 6.15865e-21)
(4.85281e-06 -4.79581e-06 2.64656e-23)
(3.63873e-06 -3.92003e-06 -6.04832e-21)
(2.27698e-06 -2.92428e-06 0)
(7.20182e-07 -1.81852e-06 1.25111e-20)
(-9.66837e-07 -6.93968e-07 -1.23455e-20)
(-2.47718e-06 2.59199e-07 0)
(-3.63295e-06 9.59489e-07 1.35151e-20)
(-4.29002e-06 1.18783e-06 -2.72635e-20)
(-5.20057e-06 8.33132e-07 1.37355e-20)
(-5.87264e-06 -1.34273e-06 -1.47456e-20)
(-8.15832e-07 -5.87598e-06 1.12324e-20)
(3.65818e-07 -5.7464e-06 0)
(1.1656e-06 -7.22379e-06 0)
(1.97622e-06 -6.96892e-06 -1.96159e-21)
(2.7895e-06 -7.25172e-06 1.95698e-21)
(3.6658e-06 -7.67141e-06 0)
(4.54944e-06 -7.97717e-06 -3.73027e-21)
(5.42481e-06 -8.16868e-06 7.35699e-21)
(6.15729e-06 -8.20332e-06 -3.62441e-21)
(6.68437e-06 -8.10143e-06 0)
(7.01968e-06 -7.9046e-06 0)
(7.11293e-06 -7.61043e-06 0)
(6.92773e-06 -7.19508e-06 -6.38443e-21)
(6.44673e-06 -6.64475e-06 6.32759e-21)
(5.68268e-06 -5.95496e-06 6.16542e-21)
(4.67067e-06 -5.13401e-06 -6.10267e-21)
(3.41636e-06 -4.18923e-06 0)
(1.9012e-06 -3.14051e-06 1.23691e-20)
(8.08811e-08 -1.96829e-06 -1.22215e-20)
(-1.99155e-06 -6.98013e-07 0)
(-3.91333e-06 4.00306e-07 0)
(-5.38259e-06 1.21003e-06 0)
(-6.17584e-06 1.5375e-06 0)
(-6.87204e-06 1.32303e-06 0)
(-7.30049e-06 -3.52745e-07 -1.55733e-20)
(-9.78094e-07 -5.59418e-06 -2.55714e-22)
(3.50252e-07 -6.98604e-06 0)
(1.13322e-06 -8.47293e-06 0)
(1.81477e-06 -8.23832e-06 -2.00655e-21)
(2.50991e-06 -8.58344e-06 2.00214e-21)
(3.25566e-06 -8.98178e-06 0)
(3.99595e-06 -9.19005e-06 -3.80263e-21)
(4.74735e-06 -9.24101e-06 7.49545e-21)
(5.46862e-06 -9.1894e-06 -3.69063e-21)
(6.02189e-06 -8.98748e-06 0)
(6.34354e-06 -8.67812e-06 0)
(6.45602e-06 -8.29143e-06 0)
(6.33373e-06 -7.82037e-06 -6.42243e-21)
(5.93898e-06 -7.24547e-06 6.36873e-21)
(5.26771e-06 -6.56394e-06 6.16907e-21)
(4.33116e-06 -5.78157e-06 -6.11001e-21)
(3.10215e-06 -4.89063e-06 0)
(1.54034e-06 -3.8744e-06 1.23552e-20)
(-4.03406e-07 -2.69582e-06 -1.22163e-20)
(-2.76772e-06 -1.29569e-06 0)
(-5.07137e-06 3.28293e-08 0)
(-6.85548e-06 1.03513e-06 0)
(-7.84441e-06 1.56645e-06 0)
(-8.37195e-06 1.54879e-06 0)
(-8.70487e-06 4.90571e-07 -1.625e-20)
(-1.23101e-06 -5.22967e-06 1.26926e-20)
(3.38774e-07 -8.17384e-06 0)
(1.09502e-06 -9.49681e-06 0)
(1.64656e-06 -9.25887e-06 -2.05875e-21)
(2.21341e-06 -9.65153e-06 2.05451e-21)
(2.81384e-06 -1.00187e-05 0)
(3.4079e-06 -1.01368e-05 -3.8887e-21)
(4.00307e-06 -1.0059e-05 7.66079e-21)
(4.61945e-06 -9.89784e-06 -3.77002e-21)
(5.15353e-06 -9.67644e-06 7.13094e-21)
(5.49556e-06 -9.31058e-06 -7.088e-21)
(5.66033e-06 -8.89136e-06 0)
(5.63377e-06 -8.44445e-06 -6.48417e-21)
(5.37188e-06 -7.9453e-06 1.18231e-22)
(4.84056e-06 -7.37686e-06 1.24493e-20)
(4.03287e-06 -6.73321e-06 -6.13187e-21)
(2.90986e-06 -5.99017e-06 0)
(1.39601e-06 -5.08484e-06 1.23183e-20)
(-5.75807e-07 -3.95876e-06 4.00299e-22)
(-3.07531e-06 -2.51601e-06 5.73323e-22)
(-5.74294e-06 -9.16206e-07 -1.28711e-20)
(-7.97517e-06 3.9002e-07 0)
(-9.27781e-06 1.22532e-06 0)
(-9.78632e-06 1.48315e-06 0)
(-1.00926e-05 1.02528e-06 -1.67895e-20)
(-1.51723e-06 -4.95515e-06 1.32696e-20)
(3.27827e-07 -9.30081e-06 0)
(1.05325e-06 -1.03209e-05 0)
(1.48161e-06 -1.00523e-05 -2.11882e-21)
(1.91977e-06 -1.04672e-05 2.11473e-21)
(2.36953e-06 -1.07878e-05 4.08757e-21)
(2.80672e-06 -1.08156e-05 -8.06485e-21)
(3.23508e-06 -1.06282e-05 7.85715e-21)
(3.67508e-06 -1.03368e-05 -3.86479e-21)
(4.21888e-06 -1.00715e-05 0)
(4.67792e-06 -9.77602e-06 7.03924e-21)
(4.88898e-06 -9.3849e-06 -6.99531e-21)
(4.95005e-06 -9.02301e-06 -6.57704e-21)
(4.83628e-06 -8.68151e-06 6.52852e-21)
(4.48239e-06 -8.3166e-06 6.23131e-21)
(3.85057e-06 -7.89726e-06 -6.17847e-21)
(2.90086e-06 -7.38689e-06 0)
(1.53253e-06 -6.68933e-06 1.22829e-20)
(-3.7129e-07 -5.69044e-06 -1.21601e-20)
(-2.91125e-06 -4.258e-06 0)
(-5.92681e-06 -2.42592e-06 1.36067e-20)
(-8.67281e-06 -7.4303e-07 -1.34521e-20)
(-1.03844e-05 4.8433e-07 0)
(-1.10175e-05 1.09577e-06 0)
(-1.13731e-05 1.22994e-06 -1.7213e-20)
(-1.80063e-06 -4.84649e-06 -3.97058e-22)
(3.18873e-07 -1.03596e-05 0)
(1.01651e-06 -1.09712e-05 0)
(1.33978e-06 -1.06488e-05 -2.1868e-21)
(1.66464e-06 -1.1062e-05 2.18283e-21)
(1.98208e-06 -1.13268e-05 0)
(2.28671e-06 -1.12748e-05 -4.1077e-21)
(2.6035e-06 -1.10081e-05 4.09293e-21)
(2.93649e-06 -1.06322e-05 0)
(3.31577e-06 -1.02606e-05 0)
(3.78852e-06 -1.0022e-05 0)
(4.14866e-06 -9.75201e-06 0)
(4.30343e-06 -9.53258e-06 -6.70318e-21)
(4.34806e-06 -9.40189e-06 6.65667e-21)
(4.20942e-06 -9.30294e-06 0)
(3.80869e-06 -9.17608e-06 0)
(3.09055e-06 -8.96146e-06 0)
(1.95251e-06 -8.5562e-06 0)
(2.40302e-07 -7.78702e-06 0)
(-2.25224e-06 -6.44871e-06 1.29085e-20)
(-5.56833e-06 -4.43227e-06 -1.27754e-20)
(-8.84306e-06 -2.3276e-06 0)
(-1.10864e-05 -6.29031e-07 0)
(-1.20326e-05 4.13966e-07 0)
(-1.25509e-05 1.11353e-06 -1.75424e-20)
(-2.08581e-06 -4.90465e-06 1.41733e-20)
(3.12458e-07 -1.13491e-05 0)
(9.90254e-07 -1.14809e-05 0)
(1.23485e-06 -1.10909e-05 -2.26246e-21)
(1.47284e-06 -1.14898e-05 2.2586e-21)
(1.68844e-06 -1.17067e-05 0)
(1.89275e-06 -1.16041e-05 -4.2407e-21)
(2.11708e-06 -1.12987e-05 8.34291e-21)
(2.37109e-06 -1.09057e-05 -4.10039e-21)
(2.67215e-06 -1.05126e-05 0)
(3.12641e-06 -1.0236e-05 0)
(3.54653e-06 -1.00956e-05 7.12752e-21)
(3.79883e-06 -1.00119e-05 -1.39471e-20)
(4.01353e-06 -1.00902e-05 6.81772e-21)
(4.11483e-06 -1.02803e-05 6.41648e-21)
(3.98994e-06 -1.04888e-05 -6.36823e-21)
(3.55344e-06 -1.06179e-05 0)
(2.71291e-06 -1.05576e-05 -1.23066e-20)
(1.27992e-06 -1.01018e-05 1.2197e-20)
(-1.04897e-06 -8.97054e-06 0)
(-4.53717e-06 -6.85128e-06 0)
(-8.35298e-06 -4.22031e-06 0)
(-1.12837e-05 -1.94522e-06 1.54618e-20)
(-1.27649e-05 -2.90087e-07 -1.52933e-20)
(-1.35032e-05 1.0077e-06 -1.77999e-20)
(-2.25637e-06 -4.99861e-06 1.4529e-20)
(3.08329e-07 -1.22714e-05 0)
(9.79973e-07 -1.18876e-05 0)
(1.18192e-06 -1.14294e-05 0)
(1.37557e-06 -1.18169e-05 0)
(1.54417e-06 -1.20134e-05 0)
(1.71197e-06 -1.19072e-05 0)
(1.90566e-06 -1.16122e-05 0)
(2.14179e-06 -1.12323e-05 0)
(2.43984e-06 -1.08499e-05 -7.93526e-21)
(2.83206e-06 -1.05745e-05 7.89796e-21)
(3.28654e-06 -1.05431e-05 0)
(3.68317e-06 -1.05698e-05 0)
(4.02995e-06 -1.07875e-05 0)
(4.34925e-06 -1.12162e-05 0)
(4.52976e-06 -1.17421e-05 0)
(4.44063e-06 -1.22349e-05 0)
(3.955e-06 -1.25324e-05 0)
(2.86688e-06 -1.24199e-05 -1.24966e-20)
(8.40091e-07 -1.15599e-05 1.23863e-20)
(-2.54497e-06 -9.51046e-06 0)
(-6.88565e-06 -6.34381e-06 -1.42821e-20)
(-1.06593e-05 -3.45048e-06 1.41398e-20)
(-1.27504e-05 -1.12566e-06 0)
(-1.40336e-05 9.63417e-07 0)
(-2.36692e-06 -4.97941e-06 0)
(3.05362e-07 -1.31306e-05 0)
(9.91564e-07 -1.22397e-05 0)
(1.19965e-06 -1.17344e-05 0)
(1.41158e-06 -1.21379e-05 0)
(1.61316e-06 -1.23698e-05 0)
(1.83905e-06 -1.23363e-05 0)
(2.11175e-06 -1.21307e-05 4.41404e-21)
(2.43265e-06 -1.18203e-05 -4.3987e-21)
(2.7774e-06 -1.14621e-05 -8.21376e-21)
(3.12929e-06 -1.11393e-05 8.17741e-21)
(3.65815e-06 -1.10322e-05 7.5812e-21)
(4.2421e-06 -1.11868e-05 -7.54067e-21)
(4.72625e-06 -1.1551e-05 0)
(5.24669e-06 -1.21477e-05 6.74477e-21)
(5.72513e-06 -1.29079e-05 -1.65395e-22)
(6.01742e-06 -1.36968e-05 -6.48774e-21)
(5.9653e-06 -1.43331e-05 0)
(5.32028e-06 -1.45707e-05 -1.25895e-20)
(3.70002e-06 -1.4028e-05 1.24843e-20)
(5.59806e-07 -1.21742e-05 0)
(-4.36202e-06 -8.59165e-06 0)
(-9.08616e-06 -4.90064e-06 1.53785e-20)
(-1.18488e-05 -1.96056e-06 -1.52283e-20)
(-1.39332e-05 8.61425e-07 0)
(-2.25586e-06 -4.87282e-06 0)
(3.01268e-07 -1.39321e-05 0)
(1.02781e-06 -1.25931e-05 0)
(1.3018e-06 -1.20911e-05 0)
(1.61398e-06 -1.25698e-05 0)
(1.95383e-06 -1.29256e-05 0)
(2.36566e-06 -1.30704e-05 0)
(2.86585e-06 -1.30607e-05 0)
(3.43465e-06 -1.29158e-05 0)
(4.03154e-06 -1.26546e-05 0)
(4.60063e-06 -1.23148e-05 0)
(5.12406e-06 -1.20202e-05 -7.85363e-21)
(5.65266e-06 -1.20912e-05 7.81405e-21)
(6.30945e-06 -1.23959e-05 0)
(7.11795e-06 -1.29955e-05 0)
(7.95972e-06 -1.38834e-05 0)
(8.68819e-06 -1.48852e-05 0)
(9.10414e-06 -1.57748e-05 0)
(8.9357e-06 -1.63031e-05 0)
(7.7641e-06 -1.60895e-05 0)
(4.9435e-06 -1.45388e-05 0)
(-2.46365e-07 -1.08495e-05 0)
(-5.92277e-06 -6.16407e-06 -1.52978e-20)
(-9.80619e-06 -2.4432e-06 1.51562e-20)
(-1.29513e-05 1.04646e-06 0)
(-1.76467e-06 -4.50818e-06 0)
(2.93621e-07 -1.46812e-05 0)
(1.09101e-06 -1.3007e-05 0)
(1.50008e-06 -1.25912e-05 0)
(2.01148e-06 -1.32389e-05 0)
(2.61913e-06 -1.38419e-05 5.06078e-21)
(3.37338e-06 -1.43019e-05 -5.04955e-21)
(4.28354e-06 -1.46325e-05 0)
(5.30449e-06 -1.47966e-05 0)
(6.35128e-06 -1.47617e-05 -8.88124e-21)
(7.28882e-06 -1.45667e-05 1.73695e-20)
(7.96611e-06 -1.43043e-05 -3.17024e-22)
(8.68384e-06 -1.40784e-05 -8.13025e-21)
(9.61903e-06 -1.39546e-05 0)
(1.05878e-05 -1.40419e-05 0)
(1.16692e-05 -1.45051e-05 6.96047e-21)
(1.28489e-05 -1.53579e-05 -6.91616e-21)
(1.38202e-05 -1.63829e-05 -1.31763e-20)
(1.41757e-05 -1.71674e-05 7.39355e-23)
(1.34441e-05 -1.72667e-05 1.29107e-20)
(1.10014e-05 -1.61396e-05 1.33714e-20)
(5.94669e-06 -1.26589e-05 -1.3262e-20)
(-6.8221e-07 -7.19617e-06 1.51996e-20)
(-6.15463e-06 -2.33664e-06 -1.50661e-20)
(-1.07501e-05 1.79167e-06 0)
(-8.40024e-07 -3.68738e-06 0)
(2.80335e-07 -1.53848e-05 0)
(1.18323e-06 -1.35444e-05 0)
(1.80296e-06 -1.33317e-05 0)
(2.62268e-06 -1.42778e-05 0)
(3.64346e-06 -1.52856e-05 0)
(4.90789e-06 -1.62236e-05 0)
(6.40987e-06 -1.70721e-05 0)
(8.08394e-06 -1.77645e-05 0)
(9.75205e-06 -1.82255e-05 -9.2864e-21)
(1.11907e-05 -1.84675e-05 9.25192e-21)
(1.24876e-05 -1.83307e-05 0)
(1.38946e-05 -1.77273e-05 0)
(1.53596e-05 -1.70171e-05 0)
(1.67335e-05 -1.61846e-05 0)
(1.80458e-05 -1.55409e-05 0)
(1.93363e-05 -1.53322e-05 0)
(2.05608e-05 -1.56728e-05 0)
(2.13895e-05 -1.63002e-05 -1.33331e-20)
(2.10898e-05 -1.66192e-05 1.32382e-20)
(1.91422e-05 -1.60533e-05 0)
(1.45026e-05 -1.31152e-05 0)
(7.29195e-06 -7.53669e-06 0)
(-7.49452e-08 -1.46017e-06 0)
(-7.05277e-06 3.31591e-06 0)
(6.12411e-07 -2.32828e-06 0)
(2.61189e-07 -1.60517e-05 0)
(1.30604e-06 -1.42672e-05 0)
(2.21254e-06 -1.44068e-05 0)
(3.45094e-06 -1.58133e-05 0)
(5.04093e-06 -1.74171e-05 0)
(6.98308e-06 -1.90186e-05 0)
(9.20657e-06 -2.05958e-05 0)
(1.16182e-05 -2.20909e-05 0)
(1.39889e-05 -2.33518e-05 0)
(1.64041e-05 -2.40738e-05 0)
(1.90604e-05 -2.405e-05 9.00357e-21)
(2.16222e-05 -2.32293e-05 -8.96513e-21)
(2.4053e-05 -2.18141e-05 0)
(2.62625e-05 -1.99513e-05 0)
(2.80719e-05 -1.787e-05 7.55286e-21)
(2.96041e-05 -1.59845e-05 -7.50972e-21)
(3.08299e-05 -1.46349e-05 -1.40689e-20)
(3.15832e-05 -1.39556e-05 1.3979e-20)
(3.13309e-05 -1.368e-05 0)
(2.98511e-05 -1.30817e-05 0)
(2.58376e-05 -1.09947e-05 0)
(1.84441e-05 -6.18642e-06 1.49553e-20)
(8.90315e-06 7.69644e-07 -3.12235e-20)
(-1.38736e-06 6.41658e-06 1.62526e-20)
(2.92924e-06 5.00076e-07 0)
(2.38243e-07 -1.66849e-05 0)
(1.45949e-06 -1.52114e-05 0)
(2.72423e-06 -1.58617e-05 0)
(4.47865e-06 -1.78804e-05 0)
(6.78908e-06 -2.03042e-05 0)
(9.54205e-06 -2.28894e-05 0)
(1.25196e-05 -2.54721e-05 -5.45949e-21)
(1.57102e-05 -2.79961e-05 5.44521e-21)
(1.93227e-05 -3.00356e-05 -1.02844e-20)
(2.34217e-05 -3.11894e-05 1.025e-20)
(2.77321e-05 -3.13729e-05 -9.54265e-21)
(3.19734e-05 -3.05463e-05 9.50393e-21)
(3.5956e-05 -2.86343e-05 0)
(3.94491e-05 -2.5904e-05 -8.33913e-21)
(4.2267e-05 -2.25919e-05 8.29671e-21)
(4.4352e-05 -1.87607e-05 0)
(4.57418e-05 -1.49579e-05 0)
(4.63028e-05 -1.1656e-05 -1.42046e-20)
(4.60307e-05 -9.26773e-06 2.1344e-22)
(4.45231e-05 -7.34555e-06 1.38079e-20)
(4.03912e-05 -5.21561e-06 0)
(3.33245e-05 -1.41961e-06 -1.48024e-20)
(2.23928e-05 5.76529e-06 1.46903e-20)
(8.59063e-06 1.21427e-05 0)
(7.44943e-06 6.19729e-06 -1.61959e-20)
(2.20423e-07 -1.72538e-05 0)
(1.66589e-06 -1.63618e-05 0)
(3.38189e-06 -1.7757e-05 0)
(5.70176e-06 -2.06589e-05 0)
(8.68736e-06 -2.40797e-05 0)
(1.2288e-05 -2.79098e-05 0)
(1.61784e-05 -3.18295e-05 0)
(2.06576e-05 -3.53418e-05 0)
(2.60518e-05 -3.80222e-05 0)
(3.20391e-05 -3.96913e-05 0)
(3.83385e-05 -4.02457e-05 0)
(4.467e-05 -3.96099e-05 0)
(5.06816e-05 -3.77579e-05 0)
(5.59215e-05 -3.45365e-05 0)
(6.05273e-05 -3.01126e-05 0)
(6.43469e-05 -2.45759e-05 0)
(6.6772e-05 -1.82124e-05 0)
(6.76658e-05 -1.1196e-05 0)
(6.71851e-05 -4.21683e-06 0)
(6.50197e-05 1.8815e-06 0)
(6.06773e-05 6.35024e-06 0)
(5.46227e-05 1.00797e-05 0)
(4.29984e-05 1.63667e-05 0)
(2.55534e-05 2.16846e-05 0)
(1.5323e-05 1.62772e-05 0)
(2.09059e-07 -1.77923e-05 1.44625e-21)
(1.86312e-06 -1.78265e-05 1.57232e-21)
(3.98996e-06 -2.02246e-05 -3.15194e-21)
(6.99118e-06 -2.42361e-05 6.22e-21)
(1.07569e-05 -2.89233e-05 -6.21162e-21)
(1.51136e-05 -3.40995e-05 0)
(2.03061e-05 -3.9039e-05 5.97661e-21)
(2.66484e-05 -4.31606e-05 5.76912e-21)
(3.4036e-05 -4.64595e-05 -2.31763e-20)
(4.2139e-05 -4.88292e-05 1.14418e-20)
(5.06129e-05 -5.01131e-05 1.08696e-20)
(5.91254e-05 -5.01099e-05 -1.08296e-20)
(6.75337e-05 -4.85109e-05 -1.01344e-20)
(7.56153e-05 -4.52617e-05 1.98102e-20)
(8.30855e-05 -4.04716e-05 -3.95934e-22)
(8.93925e-05 -3.41087e-05 8.4163e-21)
(9.44051e-05 -2.61651e-05 -1.75588e-20)
(9.78382e-05 -1.66586e-05 -1.5875e-20)
(9.87834e-05 -6.16103e-06 3.08878e-20)
(9.62217e-05 5.75488e-06 -1.50132e-20)
(9.1039e-05 1.61069e-05 0)
(8.49514e-05 2.39283e-05 1.43107e-20)
(7.17906e-05 3.17286e-05 -2.91849e-20)
(5.13187e-05 3.77824e-05 1.48639e-20)
(2.90185e-05 3.80798e-05 1.49658e-20)
(1.51528e-07 -1.84127e-05 0)
(2.00187e-06 -1.97217e-05 0)
(4.64012e-06 -2.33044e-05 0)
(8.31405e-06 -2.85313e-05 0)
(1.28414e-05 -3.4586e-05 0)
(1.85785e-05 -4.07094e-05 0)
(2.57466e-05 -4.64758e-05 0)
(3.39598e-05 -5.13915e-05 0)
(4.30712e-05 -5.53302e-05 0)
(5.29834e-05 -5.81912e-05 0)
(6.35702e-05 -5.98356e-05 0)
(7.48609e-05 -6.01645e-05 0)
(8.64806e-05 -5.8977e-05 0)
(9.7548e-05 -5.6078e-05 0)
(0.000108067 -5.10282e-05 0)
(0.000118126 -4.41212e-05 0)
(0.000127211 -3.55196e-05 0)
(0.000134074 -2.50211e-05 0)
(0.000138854 -1.28324e-05 -1.64813e-20)
(0.000139729 2.88482e-06 1.63875e-20)
(0.00013694 2.20778e-05 0)
(0.000132666 4.21689e-05 0)
(0.000120863 5.97701e-05 0)
(0.000102638 7.9146e-05 0)
(5.96292e-05 0.0001003 0)
(1.10177e-07 -1.91957e-05 0)
(2.18775e-06 -2.21148e-05 0)
(5.38525e-06 -2.71337e-05 0)
(9.8203e-06 -3.37964e-05 0)
(1.57139e-05 -4.10634e-05 0)
(2.30377e-05 -4.82128e-05 0)
(3.1708e-05 -5.48843e-05 0)
(4.17945e-05 -6.07033e-05 0)
(5.30249e-05 -6.52834e-05 0)
(6.52847e-05 -6.8419e-05 0)
(7.84286e-05 -6.99577e-05 -1.2282e-20)
(9.2245e-05 -6.9858e-05 1.22408e-20)
(0.000106444 -6.82384e-05 0)
(0.000121256 -6.51436e-05 0)
(0.0001364 -6.01671e-05 0)
(0.000150652 -5.32406e-05 0)
(0.000163843 -4.41508e-05 0)
(0.000176035 -3.31837e-05 0)
(0.0001877 -2.02505e-05 0)
(0.000198303 -5.90274e-06 0)
(0.000207843 1.18878e-05 0)
(0.000212631 3.32125e-05 -1.38144e-20)
(0.000213476 5.28487e-05 1.37303e-20)
(0.000207907 7.89011e-05 0)
(8.60586e-05 0.000195061 0)
(9.52494e-08 -2.01781e-05 0)
(2.3724e-06 -2.4882e-05 0)
(6.09698e-06 -3.13122e-05 0)
(1.1523e-05 -3.92388e-05 0)
(1.85934e-05 -4.75806e-05 0)
(2.73058e-05 -5.58953e-05 0)
(3.76502e-05 -6.34122e-05 0)
(4.9469e-05 -6.98027e-05 0)
(6.26526e-05 -7.46969e-05 0)
(7.71042e-05 -7.78508e-05 0)
(9.26837e-05 -7.91233e-05 0)
(0.000109236 -7.84171e-05 0)
(0.000126659 -7.5632e-05 0)
(0.000144863 -7.06577e-05 0)
(0.000163577 -6.39932e-05 0)
(0.000182901 -5.55684e-05 0)
(0.000202715 -4.47503e-05 0)
(0.000222248 -3.18452e-05 0)
(0.000241427 -1.63562e-05 0)
(0.000260622 1.19281e-06 0)
(0.000280425 2.23342e-05 0)
(0.000300844 4.92217e-05 0)
(0.000327063 9.1794e-05 0)
(0.000380092 0.000159373 0)
(0.000508326 0.000327944 0)
(1.09083e-07 -2.13428e-05 0)
(2.61833e-06 -2.80496e-05 0)
(6.85394e-06 -3.60499e-05 0)
(1.29954e-05 -4.5454e-05 0)
(2.09665e-05 -5.53896e-05 0)
(3.07383e-05 -6.51593e-05 0)
(4.22449e-05 -7.41947e-05 0)
(5.5398e-05 -8.19773e-05 0)
(7.01132e-05 -8.81043e-05 0)
(8.62985e-05 -9.23058e-05 0)
(0.000103836 -9.44135e-05 0)
(0.000122598 -9.43073e-05 0)
(0.00014248 -9.19179e-05 0)
(0.000163341 -8.72753e-05 0)
(0.000185037 -8.05236e-05 0)
(0.000207645 -7.17458e-05 0)
(0.000230952 -6.14185e-05 0)
(0.000254933 -4.97271e-05 0)
(0.000279188 -3.62562e-05 0)
(0.000302604 -2.07901e-05 0)
(0.000325046 -1.99412e-06 0)
(0.000347069 2.34096e-05 0)
(0.000369718 6.23772e-05 0)
(0.000391009 0.000118843 0)
(0.000381975 0.000179832 0)
(1.18872e-07 -2.26468e-05 0)
(2.83868e-06 -3.16474e-05 0)
(7.51483e-06 -4.15617e-05 0)
(1.42904e-05 -5.28482e-05 0)
(2.30428e-05 -6.4627e-05 0)
(3.37316e-05 -7.62367e-05 0)
(4.62953e-05 -8.70335e-05 0)
(6.06682e-05 -9.647e-05 0)
(7.67767e-05 -0.000104143 0)
(9.4535e-05 -0.000109776 0)
(0.000113846 -0.000113186 0)
(0.000134611 -0.000114241 0)
(0.000156734 -0.000112857 0)
(0.000180096 -0.000109021 0)
(0.000204564 -0.000102756 0)
(0.000230049 -9.41641e-05 0)
(0.000256347 -8.35876e-05 0)
(0.000283257 -7.10988e-05 0)
(0.000310062 -5.69836e-05 0)
(0.000335542 -4.05268e-05 0)
(0.000358607 -1.9613e-05 0)
(0.000377691 9.54259e-06 0)
(0.000390356 5.32657e-05 0)
(0.00039087 0.000119318 0)
(0.000362833 0.000217199 0)
(1.26975e-07 -2.40529e-05 0)
(3.01905e-06 -3.55571e-05 0)
(8.06159e-06 -4.75908e-05 0)
(1.53727e-05 -6.09351e-05 0)
(2.47982e-05 -7.47382e-05 0)
(3.62866e-05 -8.83243e-05 0)
(4.97799e-05 -0.000101024 0)
(6.52152e-05 -0.000112287 0)
(8.25251e-05 -0.00012171 0)
(0.000101636 -0.000129018 0)
(0.000122471 -0.000134017 0)
(0.000144948 -0.000136571 0)
(0.000168981 -0.000136584 0)
(0.000194459 -0.000134011 0)
(0.000221241 -0.000128836 0)
(0.000249142 -0.00012109 0)
(0.000277873 -0.000110873 0)
(0.00030698 -9.81687e-05 0)
(0.000335632 -8.28778e-05 0)
(0.00036253 -6.39375e-05 0)
(0.00038597 -3.9021e-05 0)
(0.000403783 -3.90721e-06 0)
(0.000413316 4.8527e-05 0)
(0.000410689 0.000128605 0)
(0.000390994 0.000250592 0)
(1.30731e-07 -2.55341e-05 0)
(3.15536e-06 -3.97127e-05 0)
(8.49277e-06 -5.40299e-05 0)
(1.62434e-05 -6.95733e-05 0)
(2.623e-05 -8.55283e-05 0)
(3.83903e-05 -0.000101207 0)
(5.26642e-05 -0.000115937 0)
(6.89894e-05 -0.000129165 0)
(8.73037e-05 -0.000140489 0)
(0.000107542 -0.000149628 0)
(0.000129636 -0.000156386 0)
(0.000153514 -0.000160619 0)
(0.000179093 -0.00016222 0)
(0.000206264 -0.000161109 0)
(0.000234874 -0.00015722 0)
(0.000264695 -0.000150488 0)
(0.000295375 -0.000140823 0)
(0.000326367 -0.000127982 0)
(0.000356814 -0.000111395 0)
(0.00038549 -8.96961e-05 0)
(0.000410774 -6.02677e-05 0)
(0.000430828 -1.85757e-05 0)
(0.000444091 4.21773e-05 0)
(0.000449499 0.000131239 0)
(0.000448481 0.000260702 0)
(1.29797e-07 -2.70673e-05 0)
(3.24708e-06 -4.40605e-05 0)
(8.81224e-06 -6.07968e-05 0)
(1.69107e-05 -7.86601e-05 0)
(2.73477e-05 -9.6872e-05 0)
(4.00501e-05 -0.000114744 0)
(5.4955e-05 -0.000131604 0)
(7.20014e-05 -0.000146901 0)
(9.11273e-05 -0.00016023 0)
(0.000112271 -0.000171311 0)
(0.000135367 -0.000179942 0)
(0.000160348 -0.000185973 0)
(0.000187132 -0.000189276 0)
(0.000215609 -0.000189734 0)
(0.000245621 -0.000187219 0)
(0.000276934 -0.000181569 0)
(0.000309187 -0.00017253 0)
(0.000341859 -0.000159639 0)
(0.000374194 -0.000142028 0)
(0.000405176 -0.000118072 0)
(0.000433679 -8.50174e-05 0)
(0.000458641 -3.85275e-05 0)
(0.000479603 2.73061e-05 0)
(0.000497619 0.000119588 0)
(0.000516709 0.000246536 0)
(1.23994e-07 -2.86293e-05 0)
(3.29597e-06 -4.85476e-05 0)
(9.02598e-06 -6.78153e-05 0)
(1.7387e-05 -8.80976e-05 0)
(2.81688e-05 -0.000108655 0)
(4.12907e-05 -0.000128802 0)
(5.66875e-05 -0.000147873 0)
(7.42951e-05 -0.000165318 0)
(9.405e-05 -0.000180734 0)
(0.000115889 -0.000193837 0)
(0.000139748 -0.000204426 0)
(0.00016556 -0.00021234 0)
(0.000193245 -0.000217432 0)
(0.000222697 -0.000219549 0)
(0.000253766 -0.000218501 0)
(0.000286231 -0.000214036 0)
(0.000319775 -0.000205775 0)
(0.000353958 -0.000193096 0)
(0.000388215 -0.000174974 0)
(0.000421874 -0.000149697 0)
(0.000454315 -0.000114581 0)
(0.000485268 -6.58111e-05 0)
(0.000515333 1.44143e-06 0)
(0.000546535 9.2189e-05 0)
(0.00058332 0.00021127 0)
(1.13678e-07 -3.0199e-05 0)
(3.30595e-06 -5.31242e-05 0)
(9.14536e-06 -7.5013e-05 0)
(1.76909e-05 -9.77935e-05 0)
(2.87229e-05 -0.000120766 0)
(4.21545e-05 -0.000143255 0)
(5.79164e-05 -0.0001646 0)
(7.59403e-05 -0.000184252 0)
(9.61584e-05 -0.000201809 0)
(0.000118505 -0.000216991 0)
(0.000142918 -0.000229593 0)
(0.00016933 -0.00023945 0)
(0.000197665 -0.000246396 0)
(0.000227827 -0.000250244 0)
(0.000259684 -0.000250759 0)
(0.000293054 -0.000247617 0)
(0.000327688 -0.000240353 0)
(0.000363265 -0.000228263 0)
(0.000399426 -0.000210266 0)
(0.000435844 -0.000184722 0)
(0.000472385 -0.000149233 0)
(0.000509409 -0.00010059 0)
(0.000548115 -3.50382e-05 0)
(0.000590934 5.07714e-05 0)
(0.000642025 0.00015928 0)
(9.97777e-08 -3.17579e-05 0)
(3.28345e-06 -5.7747e-05 0)
(9.18371e-06 -8.23267e-05 0)
(1.78471e-05 -0.000107667 0)
(2.9047e-05 -0.00013311 0)
(4.26924e-05 -0.000157992 0)
(5.87087e-05 -0.000181655 0)
(7.70218e-05 -0.000203554 0)
(9.75604e-05 -0.000223291 0)
(0.000120257 -0.000240588 0)
(0.00014505 -0.000255242 0)
(0.000171875 -0.000267083 0)
(0.000200665 -0.000275934 0)
(0.000231339 -0.000281586 0)
(0.000263793 -0.000283767 0)
(0.000297894 -0.000282112 0)
(0.000333476 -0.000276112 0)
(0.000370353 -0.000265041 0)
(0.00040836 -0.000247859 0)
(0.000447449 -0.000223087 0)
(0.000487855 -0.000188712 0)
(0.000530338 -0.000142197 0)
(0.000576446 -8.07624e-05 0)
(0.000628679 -2.0908e-06 0)
(0.000690665 9.47174e-05 0)
(8.3284e-08 -3.32912e-05 0)
(3.23491e-06 -6.23809e-05 0)
(9.15667e-06 -8.97029e-05 0)
(1.78813e-05 -0.00011765 0)
(2.91805e-05 -0.000145606 0)
(4.29585e-05 -0.000172916 0)
(5.91345e-05 -0.000198928 0)
(7.76301e-05 -0.000223102 0)
(9.8371e-05 -0.000245043 0)
(0.00012129 -0.000264479 0)
(0.000146326 -0.000281213 0)
(0.000173423 -0.000295073 0)
(0.000202524 -0.000305878 0)
(0.000233567 -0.000313405 0)
(0.000266485 -0.000317369 0)
(0.000301199 -0.000317386 0)
(0.000337629 -0.000312941 0)
(0.000375712 -0.000303335 0)
(0.000415456 -0.000287623 0)
(0.000457022 -0.000264546 0)
(0.00050088 -0.000232496 0)
(0.000547997 -0.000189562 0)
(0.000600031 -0.00013379 0)
(0.000659409 -6.36723e-05 0)
(0.000729239 2.10563e-05 0)
(6.51428e-08 -3.47877e-05 0)
(3.16706e-06 -6.69973e-05 0)
(9.07806e-06 -9.70979e-05 0)
(1.78191e-05 -0.000127685 0)
(2.9161e-05 -0.000158184 0)
(4.30037e-05 -0.000187947 0)
(5.92616e-05 -0.000216329 0)
(7.78524e-05 -0.000242793 0)
(9.87013e-05 -0.000266954 0)
(0.000121742 -0.000288548 0)
(0.000146918 -0.000307385 0)
(0.00017418 -0.000323297 0)
(0.000203487 -0.000336105 0)
(0.0002348 -0.000345588 0)
(0.000268089 -0.00035146 0)
(0.000303329 -0.000353343 0)
(0.000340521 -0.000350746 0)
(0.000379711 -0.00034303 0)
(0.000421039 -0.000329375 0)
(0.000464817 -0.000308755 0)
(0.000511647 -0.00027994 0)
(0.00056256 -0.000241567 0)
(0.000619158 -0.000192341 0)
(0.000683657 -0.00013141 0)
(0.000758737 -5.88321e-05 0)
(4.62425e-08 -3.6239e-05 0)
(3.08531e-06 -7.15741e-05 0)
(8.96154e-06 -0.000104477 0)
(1.76829e-05 -0.000137728 0)
(2.90221e-05 -0.000170789 0)
(4.28745e-05 -0.000203021 0)
(5.91505e-05 -0.000233782 0)
(7.77669e-05 -0.000262547 0)
(9.86489e-05 -0.000288939 0)
(0.000121734 -0.000312706 0)
(0.00014697 -0.000333666 0)
(0.00017432 -0.000351663 0)
(0.000203756 -0.000366529 0)
(0.000235265 -0.000378052 0)
(0.000268852 -0.00038596 0)
(0.000304545 -0.000389901 0)
(0.000342411 -0.00038943 0)
(0.000382583 -0.000383986 0)
(0.000425301 -0.000372887 0)
(0.000470974 -0.000355328 0)
(0.000520265 -0.000330405 0)
(0.000574189 -0.0002972 0)
(0.000634201 -0.000254933 0)
(0.000702217 -0.000203231 0)
(0.000780506 -0.000142453 0)
(2.71579e-08 -3.76401e-05 0)
(2.99485e-06 -7.60949e-05 0)
(8.81756e-06 -0.000111814 0)
(1.74921e-05 -0.000147742 0)
(2.87919e-05 -0.000183376 0)
(4.26092e-05 -0.000218082 0)
(5.88527e-05 -0.000251228 0)
(7.74383e-05 -0.000282299 0)
(9.82944e-05 -0.000310931 0)
(0.000121362 -0.000336882 0)
(0.000146597 -0.000359988 0)
(0.000173972 -0.000380106 0)
(0.000203476 -0.000397083 0)
(0.00023512 -0.000410729 0)
(0.00026894 -0.000420797 0)
(0.000305006 -0.000426975 0)
(0.000343441 -0.000428875 0)
(0.000384442 -0.000426026 0)
(0.000428316 -0.000417885 0)
(0.000475526 -0.000403841 0)
(0.000526751 -0.000383264 0)
(0.000582947 -0.000355575 0)
(0.000645394 -0.000320375 0)
(0.000715701 -0.000277631 0)
(0.000795717 -0.000227897 0)
(8.5293e-09 -3.89882e-05 0)
(2.89914e-06 -8.05485e-05 0)
(8.65556e-06 -0.000119088 0)
(1.72616e-05 -0.0001577 0)
(2.84928e-05 -0.000195908 0)
(4.2239e-05 -0.000233089 0)
(5.84078e-05 -0.00026862 0)
(7.69175e-05 -0.000301998 0)
(9.76987e-05 -0.000332874 0)
(0.000120699 -0.000361023 0)
(0.000145881 -0.000386294 0)
(0.000173229 -0.000408567 0)
(0.000202746 -0.000427709 0)
(0.000234463 -0.000443556 0)
(0.000268444 -0.000455897 0)
(0.000304792 -0.000464466 0)
(0.000343669 -0.000468939 0)
(0.000385316 -0.000468943 0)
(0.000430077 -0.000464057 0)
(0.000478436 -0.000453845 0)
(0.000531057 -0.000437894 0)
(0.000588816 -0.000415881 0)
(0.000652825 -0.000387677 0)
(0.000724416 -0.000353474 0)
(0.000805071 -0.000313937 0)
(-9.02417e-09 -4.0282e-05 0)
(2.80202e-06 -8.49271e-05 0)
(8.48179e-06 -0.000126285 0)
(1.70029e-05 -0.000167577 0)
(2.81413e-05 -0.000208356 0)
(4.17862e-05 -0.000248006 0)
(5.78459e-05 -0.000285917 0)
(7.62402e-05 -0.000321601 0)
(9.6905e-05 -0.000354724 0)
(0.000119793 -0.00038508 0)
(0.000144874 -0.000412536 0)
(0.000172143 -0.000436994 0)
(0.000201617 -0.000458347 0)
(0.000233341 -0.000476463 0)
(0.000267399 -0.00049117 0)
(0.00030392 -0.000502253 0)
(0.00034309 -0.000509457 0)
(0.000385172 -0.000512495 0)
(0.000430525 -0.000511066 0)
(0.000479631 -0.000504875 0)
(0.000533113 -0.000493683 0)
(0.000591761 -0.000477359 0)
(0.000656527 -0.000455956 0)
(0.000728511 -0.000429812 0)
(0.000808895 -0.00039964 0)
(-2.53424e-08 -4.15219e-05 0)
(2.70526e-06 -8.92252e-05 0)
(8.30175e-06 -0.000133392 0)
(1.6723e-05 -0.000177357 0)
(2.77487e-05 -0.000220695 0)
(4.12666e-05 -0.000262802 0)
(5.7186e-05 -0.000303084 0)
(7.54305e-05 -0.000341069 0)
(9.59396e-05 -0.000376439 0)
(0.000118672 -0.000409007 0)
(0.000143606 -0.000438663 0)
(0.000170743 -0.000465331 0)
(0.000200109 -0.000488933 0)
(0.000231764 -0.00050937 0)
(0.000265803 -0.000526512 0)
(0.000302368 -0.000540198 0)
(0.00034166 -0.000550236 0)
(0.000383948 -0.000556424 0)
(0.000429586 -0.000558558 0)
(0.000479033 -0.000556467 0)
(0.000532861 -0.000550044 0)
(0.000591763 -0.000539295 0)
(0.00065655 -0.000524402 0)
(0.000728123 -0.000505786 0)
(0.000807421 -0.000484173 0)
(-4.01571e-08 -4.27095e-05 0)
(2.61075e-06 -9.34391e-05 0)
(8.11755e-06 -0.000140401 0)
(1.64272e-05 -0.000187022 0)
(2.73218e-05 -0.000232904 0)
(4.06892e-05 -0.000277452 0)
(5.64402e-05 -0.000320091 0)
(7.45012e-05 -0.000360366 0)
(9.48168e-05 -0.000397979 0)
(0.00011735 -0.00043276 0)
(0.000142086 -0.000464623 0)
(0.000169032 -0.000493517 0)
(0.000198221 -0.000519391 0)
(0.000229718 -0.000542184 0)
(0.000263628 -0.000561805 0)
(0.000300096 -0.000578143 0)
(0.000339324 -0.00059107 0)
(0.000381575 -0.000600454 0)
(0.000427187 -0.000606179 0)
(0.00047658 -0.00060817 0)
(0.000530265 -0.000606421 0)
(0.000588842 -0.000601039 0)
(0.000652989 -0.000592287 0)
(0.000723438 -0.000580631 0)
(0.000800926 -0.000566782 0)
(-5.33193e-08 -4.38467e-05 0)
(2.51837e-06 -9.7566e-05 0)
(7.93086e-06 -0.000147303 0)
(1.61173e-05 -0.00019656 0)
(2.68643e-05 -0.000244962 0)
(4.00589e-05 -0.00029193 0)
(5.56134e-05 -0.000336907 0)
(7.34581e-05 -0.000379457 0)
(9.35409e-05 -0.000419301 0)