/*--------------------------------*- C++ -*----------------------------------*\
  =========                 |
  \\      /  F ield         | OpenFOAM: The Open Source CFD Toolbox
   \\    /   O peration     | Website:  https://openfoam.org
    \\  /    A nd           | Version:  13
     \\/     M anipulation  |
\*---------------------------------------------------------------------------*/
FoamFile
{
    format      ascii;
    class       volVectorField;
    location    "27";
    object      U;
}
// * * * * * * * * * * * * * * * * * * * * * * * * * * * * * * * * * * * * * //

dimensions      [0 1 -1 0 0 0 0];

internalField   nonuniform List<vector> 
6440
(
(-0.0223142 0.01034 0)
(-0.018111 -0.0289173 0)
(0.0451589 -0.081649 -1.04532e-15)
(0.130092 -0.0887077 7.04222e-16)
(0.209503 -0.0694468 0)
(0.263621 -0.0451432 -1.06164e-15)
(0.290969 -0.0237424 1.06783e-15)
(0.282932 -0.0113677 0)
(0.250222 -0.000524823 0)
(0.206174 0.00964218 0)
(0.153321 0.0168805 3.15064e-15)
(0.09051 0.0202853 -8.18364e-15)
(0.0174198 0.0257859 5.6033e-15)
(-0.0432813 0.0329216 0)
(-0.0620516 0.0313338 -8.53574e-15)
(-0.0786758 0.0304069 6.99337e-15)
(-0.113469 0.0305152 0)
(-0.159792 0.0264547 0)
(-0.209797 0.0127362 0)
(-0.247698 -0.00416337 0)
(-0.263302 -0.0355394 -4.86694e-15)
(-0.254061 -0.0687847 1.01627e-14)
(-0.217348 -0.0950662 -5.79868e-15)
(-0.151972 -0.0994891 -7.41886e-15)
(-0.0629245 -0.0602017 9.41124e-15)
(-0.0127621 0.0296499 0)
(0.0451236 -0.117283 0)
(0.143712 -0.238313 -5.40176e-16)
(0.241129 -0.255502 4.2089e-16)
(0.327354 -0.203821 0)
(0.393514 -0.125016 -7.3219e-16)
(0.431369 -0.0430392 1.51614e-15)
(0.438425 0.0290543 -7.31741e-16)
(0.41484 0.0837144 0)
(0.364056 0.118919 0)
(0.289159 0.134901 0)
(0.19264 0.133788 -2.19822e-15)
(0.0756778 0.11902 2.97446e-15)
(-0.0320532 0.098907 3.8659e-15)
(-0.0931519 0.0815563 -3.53643e-15)
(-0.13241 0.065374 0)
(-0.179805 0.0396522 0)
(-0.239007 0.00509434 0)
(-0.296781 -0.03551 0)
(-0.326163 -0.0772044 0)
(-0.327675 -0.122023 -4.63278e-15)
(-0.303857 -0.162559 4.78719e-15)
(-0.262453 -0.193111 0)
(-0.199005 -0.203912 -5.93206e-15)
(-0.0894093 -0.144137 1.48341e-14)
(0.00828095 0.0180464 0)
(0.12927 -0.236703 0)
(0.270082 -0.39623 0)
(0.397935 -0.40494 0)
(0.506566 -0.325226 0)
(0.588166 -0.204283 0)
(0.640731 -0.0735609 4.91766e-16)
(0.664185 0.0454831 -4.79251e-16)
(0.659339 0.143953 0)
(0.623274 0.219664 0)
(0.557176 0.267408 0)
(0.465327 0.285953 0)
(0.351496 0.27676 0)
(0.214293 0.247 1.45603e-15)
(0.089224 0.207775 -5.73745e-15)
(0.00345307 0.168645 5.37578e-15)
(-0.0539644 0.121737 0)
(-0.129103 0.0423758 0)
(-0.235908 -0.0456458 0)
(-0.287273 -0.111889 0)
(-0.282326 -0.165798 0)
(-0.26201 -0.208968 0)
(-0.232088 -0.242644 5.73113e-15)
(-0.189252 -0.258761 -5.75832e-15)
(-0.0928772 -0.20418 6.31552e-15)
(0.0593913 -0.142591 0)
(0.230538 -0.484436 0)
(0.400584 -0.60716 -2.01689e-16)
(0.543127 -0.56954 1.79681e-16)
(0.657936 -0.447433 0)
(0.743106 -0.287163 -3.504e-16)
(0.80843 -0.117788 3.65791e-16)
(0.861572 0.0454596 0)
(0.855995 0.18837 7.01902e-16)
(0.827141 0.304852 -6.81057e-16)
(0.769689 0.386703 6.90061e-16)
(0.68651 0.431484 -1.45695e-15)
(0.586489 0.438188 8.0147e-16)
(0.471261 0.410961 0)
(0.350681 0.362636 0)
(0.249983 0.305385 0)
(0.176586 0.236191 3.39104e-15)
(0.0942006 0.14212 -5.51292e-20)
(-0.0222947 0.0296031 -6.78173e-15)
(-0.128399 -0.077677 0)
(-0.168996 -0.157194 0)
(-0.172914 -0.206179 8.77044e-15)
(-0.16121 -0.238639 -7.44081e-15)
(-0.150381 -0.26197 -6.37827e-15)
(-0.0859186 -0.22889 1.19518e-14)
(0.102993 -0.470243 0)
(0.284612 -0.778312 0)
(0.430112 -0.803768 -1.6281e-16)
(0.534874 -0.704728 1.55313e-16)
(0.608336 -0.545267 0)
(0.679746 -0.358318 -3.35448e-16)
(0.731756 -0.160419 3.7018e-16)
(0.761737 0.0371725 0)
(0.766196 0.220592 7.35491e-16)
(0.748868 0.373288 -7.00168e-16)
(0.711531 0.481605 6.96041e-16)
(0.655894 0.539694 -1.43283e-15)
(0.597672 0.554219 7.64714e-16)
(0.530091 0.532279 0)
(0.457747 0.483191 1.88003e-15)
(0.390476 0.415622 -2.15339e-15)
(0.326841 0.333789 2.51028e-15)
(0.24874 0.234877 1.73963e-19)
(0.15635 0.122586 -3.83378e-15)
(0.0696435 0.0114251 0)
(0.0039152 -0.0828584 6.58528e-15)
(-0.035831 -0.147435 9.20496e-19)
(-0.0644843 -0.189691 -6.57627e-15)
(-0.0981132 -0.2259 -6.52183e-15)
(-0.0755773 -0.219062 6.00118e-15)
(0.0986679 -0.749035 0)
(0.227019 -0.923396 0)
(0.294286 -0.87355 -1.65274e-16)
(0.316795 -0.723873 1.75818e-16)
(0.323986 -0.536781 0)
(0.328301 -0.33598 -4.85657e-16)
(0.333165 -0.126944 6.25549e-16)
(0.361163 0.0791988 0)
(0.41765 0.269534 1.15287e-15)
(0.450872 0.42854 -9.83129e-16)
(0.454506 0.539543 9.12272e-16)
(0.444796 0.612798 -1.7868e-15)
(0.42841 0.606926 9.20809e-16)
(0.416944 0.574704 0)
(0.407945 0.522482 -2.06978e-15)
(0.387904 0.458113 2.22789e-15)
(0.348336 0.388173 2.44074e-15)
(0.295206 0.303682 3.38938e-19)
(0.240942 0.202592 -3.13827e-15)
(0.187317 0.0991289 0)
(0.135807 0.0075106 -4.85084e-15)
(0.0849994 -0.0635291 1.13586e-14)
(0.0252174 -0.116602 -6.47832e-15)
(-0.0513029 -0.166799 -6.76005e-15)
(-0.0650747 -0.181294 6.25721e-15)
(0.0506513 -0.8978 0)
(0.0911921 -0.96225 0)
(0.0703013 -0.844525 -2.03221e-16)
(0.0358421 -0.668078 2.51565e-16)
(0.00332579 -0.483152 0)
(-0.0216631 -0.297393 -1.02934e-15)
(-0.0495773 -0.109927 1.86169e-15)
(-0.0284416 0.0636929 0)
(0.071746 0.270067 2.85042e-15)
(0.0850535 0.451694 -1.9303e-15)
(0.095769 0.569765 1.54902e-15)
(0.122593 0.610981 -2.91732e-15)
(0.160092 0.600002 1.49406e-15)
(0.214278 0.554157 0)
(0.272469 0.49848 0)
(0.30182 0.452194 0)
(0.301142 0.396526 2.71104e-15)
(0.284148 0.322494 4.92952e-19)
(0.263199 0.243444 -2.92948e-15)
(0.236505 0.16541 0)
(0.199969 0.0929752 0)
(0.149662 0.0264177 5.09715e-15)
(0.0732749 -0.0372745 -6.69352e-15)
(-0.0334384 -0.10699 -8.32827e-15)
(-0.0524266 -0.127992 7.18479e-15)
(-0.00336555 -0.936403 0)
(-0.0502985 -0.945093 0)
(-0.140067 -0.751409 -2.33739e-16)
(-0.206444 -0.58809 2.55073e-16)
(-0.273229 -0.414571 0)
(-0.329202 -0.223083 -6.25337e-16)
(-0.374201 -0.0127752 6.95729e-16)
(-0.408818 0.181712 0)
(-0.392517 0.331549 9.71492e-16)
(-0.35739 0.461761 -8.78423e-16)
(-0.290965 0.537475 8.79724e-16)
(-0.192448 0.559563 -1.93412e-15)
(-0.0704222 0.532931 1.17145e-15)
(0.0556029 0.480089 0)
(0.146379 0.427748 0)
(0.187469 0.381195 0)
(0.211793 0.332871 3.90611e-15)
(0.209044 0.284343 6.92428e-19)
(0.196923 0.234235 -3.65833e-15)
(0.156202 0.180415 0)
(0.117939 0.115736 0)
(0.0817175 0.0527388 5.83296e-15)
(0.0230044 0.00089473 -7.96492e-15)
(-0.0413942 -0.0719114 -1.24933e-14)
(-0.027992 -0.0769963 1.80259e-14)
(-0.0543237 -0.87507 0)
(-0.178988 -0.76356 0)
(-0.323872 -0.617867 0)
(-0.437858 -0.462509 0)
(-0.548414 -0.300004 4.30707e-16)
(-0.640754 -0.141913 -4.39141e-16)
(-0.702023 0.00520848 4.37714e-16)
(-0.718858 0.137696 -3.90597e-16)
(-0.68564 0.252042 7.27768e-16)
(-0.607747 0.34689 3.31809e-19)
(-0.497313 0.417054 5.32485e-19)
(-0.364517 0.448258 -8.93787e-16)
(-0.22572 0.437492 -1.05781e-15)
(-0.107529 0.396963 2.51094e-15)
(-0.0800149 0.339965 -4.25621e-15)
(-0.117874 0.279715 2.98767e-15)
(-0.150119 0.233954 0)
(-0.143925 0.195913 3.28703e-15)
(-0.125038 0.151219 -3.78423e-15)
(-0.0958678 0.0991568 4.69946e-15)
(-0.0613968 0.0528066 3.39095e-19)
(-0.0335745 0.0171465 -1.99093e-20)
(-0.0240002 -0.0167175 -1.03701e-14)
(-0.00131428 -0.0370411 0)
(0.00472763 -0.0243955 -1.08123e-14)
(-0.103241 -0.697649 0)
(-0.290848 -0.572416 0)
(-0.478144 -0.434943 0)
(-0.627764 -0.299724 0)
(-0.753782 -0.171432 -3.84946e-16)
(-0.849926 -0.0563615 3.63598e-16)
(-0.910933 0.041106 -3.32211e-16)
(-0.932659 0.127335 3.05761e-16)
(-0.923802 0.213976 0)
(-0.895319 0.297731 -5.73741e-16)
(-0.850957 0.355667 -3.10264e-19)
(-0.798561 0.374282 5.7811e-16)
(-0.751447 0.366119 0)
(-0.724061 0.335562 -6.35687e-16)
(-0.715009 0.281362 2.04237e-15)
(-0.710137 0.206065 -1.4946e-15)
(-0.677817 0.119213 1.71169e-15)
(-0.596771 0.0369862 -1.98941e-15)
(-0.472069 -0.0260568 0)
(-0.323613 -0.0629794 -3.34081e-15)
(-0.171473 -0.0710177 1.0844e-14)
(-0.039148 -0.0601339 -1.77125e-14)
(0.0380538 -0.0479212 1.03095e-14)
(0.0711074 -0.0195917 0)
(0.0343113 0.030588 -1.00505e-14)
(-0.139031 -0.402003 0)
(-0.380294 -0.331608 0)
(-0.605837 -0.206614 0)
(-0.80106 -0.0872421 0)
(-0.972482 0.0204508 3.28859e-16)
(-1.1114 0.105596 -2.82834e-16)
(-1.22267 0.173583 2.49593e-16)
(-1.31811 0.240061 -2.29098e-16)
(-1.40192 0.306396 4.2423e-16)
(-1.46911 0.351186 3.67521e-20)
(-1.51919 0.359111 -3.80914e-16)
(-1.55584 0.336104 0)
(-1.57546 0.28986 -3.81172e-16)
(-1.57237 0.220411 7.89703e-16)
(-1.53876 0.132211 -1.26881e-15)
(-1.46978 0.0309613 8.96672e-16)
(-1.35699 -0.0761995 0)
(-1.19913 -0.178837 1.10235e-15)
(-0.990719 -0.252076 -1.27552e-15)
(-0.732276 -0.268727 1.60391e-15)
(-0.451936 -0.216964 1.79502e-19)
(-0.188866 -0.110708 -4.34988e-15)
(0.00869464 0.000943293 0)
(0.0980754 0.0707015 0)
(0.0474 0.097754 0)
(-0.164766 -0.134734 0)
(-0.443754 -0.0674131 0)
(-0.694744 0.0451184 2.22497e-16)
(-0.917197 0.151883 -1.70845e-16)
(-1.11588 0.238552 0)
(-1.29405 0.300408 2.27971e-16)
(-1.45898 0.350672 -4.08374e-16)
(-1.616 0.401069 1.86081e-16)
(-1.76036 0.438906 0)
(-1.88651 0.443114 0)
(-1.98545 0.41088 0)
(-2.0624 0.34999 3.04349e-16)
(-2.12763 0.259528 -3.0649e-16)
(-2.16746 0.138602 -3.15501e-16)
(-2.17242 -0.00550961 -3.28451e-16)
(-2.12947 -0.159315 6.45394e-16)
(-2.02107 -0.308358 6.50787e-16)
(-1.84578 -0.438461 -6.76648e-16)
(-1.61129 -0.529135 0)
(-1.30809 -0.550497 0)
(-0.952582 -0.473287 1.06787e-15)
(-0.574656 -0.295926 -1.5479e-15)
(-0.22049 -0.0571826 0)
(0.0116477 0.113687 6.03495e-15)
(0.0199885 0.127892 -1.73224e-14)
(-0.17452 0.11894 0)
(-0.449864 0.202158 0)
(-0.696641 0.307377 -1.8776e-16)
(-0.922672 0.402063 1.40191e-16)
(-1.13024 0.46852 2.30206e-16)
(-1.32219 0.509184 -4.04319e-16)
(-1.50294 0.544039 3.66875e-16)
(-1.67299 0.577843 -1.68133e-16)
(-1.82488 0.590151 0)
(-1.9543 0.564217 2.95198e-16)
(-2.06439 0.503803 -2.87954e-16)
(-2.16018 0.414381 -2.86014e-16)
(-2.23776 0.291763 1.31981e-19)
(-2.28492 0.1362 6.03081e-16)
(-2.2962 -0.0448995 -9.24308e-16)
(-2.29151 -0.242049 5.85995e-16)
(-2.22697 -0.44361 0)
(-2.1237 -0.634981 0)
(-1.96807 -0.794678 0)
(-1.74405 -0.884082 6.09335e-16)
(-1.43709 -0.852387 -7.02469e-16)
(-1.04499 -0.671946 0)
(-0.581378 -0.377418 0)
(-0.178653 -0.0967925 -3.13144e-15)
(-0.0328438 -0.0630785 -1.53486e-19)
(-0.159958 0.363928 0)
(-0.405936 0.46699 0)
(-0.634168 0.569065 1.56747e-16)
(-0.850987 0.648881 -1.24012e-16)
(-1.0511 0.691658 -2.11352e-16)
(-1.23634 0.710217 3.80704e-16)
(-1.41007 0.728199 -3.50419e-16)
(-1.57049 0.743494 1.62168e-16)
(-1.71092 0.731056 0)
(-1.83182 0.678203 -2.91811e-16)
(-1.9377 0.590656 2.88045e-16)
(-2.02507 0.470285 2.89543e-16)
(-2.08323 0.313421 -2.99004e-16)
(-2.10801 0.125533 -3.18081e-16)
(-2.1053 -0.0810981 -3.22867e-16)
(-2.08403 -0.299015 6.04461e-16)
(-2.04729 -0.523187 5.7386e-16)
(-1.99464 -0.746087 -5.5048e-16)
(-1.91455 -0.955286 0)
(-1.81611 -1.12131 -5.44521e-16)
(-1.65793 -1.18603 1.16224e-15)
(-1.39649 -1.086 -6.85649e-16)
(-0.939633 -0.8042 0)
(-0.385285 -0.444912 1.79815e-15)
(-0.0786181 -0.285664 -3.67694e-15)
(-0.131009 0.611483 1.23033e-16)
(-0.333085 0.725226 8.98161e-17)
(-0.537547 0.817909 -1.38817e-16)
(-0.735339 0.878145 2.29078e-16)
(-0.916634 0.895423 -2.79015e-19)
(-1.08344 0.891585 -1.86391e-16)
(-1.23794 0.892664 1.73927e-16)
(-1.37678 0.890089 1.62473e-16)
(-1.49509 0.85581 -3.09582e-16)
(-1.5958 0.779526 3.01604e-16)
(-1.6818 0.666992 -3.02558e-16)
(-1.74429 0.517559 0)
(-1.77225 0.32904 -3.29877e-16)
(-1.76768 0.110559 7.30452e-16)
(-1.74466 -0.122355 -3.63611e-16)
(-1.71327 -0.358841 6.73275e-16)
(-1.67424 -0.593316 -6.306e-16)
(-1.63307 -0.821954 0)
(-1.59587 -1.04119 0)
(-1.57304 -1.24008 5.56581e-16)
(-1.58035 -1.37829 7.66657e-19)
(-1.47636 -1.38565 -6.09801e-16)
(-1.15768 -1.20729 0)
(-0.54637 -0.806397 0)
(-0.0545435 -0.47256 -2.44872e-15)
(-0.100664 0.863071 0)
(-0.255375 0.961672 0)
(-0.42999 1.04052 0)
(-0.600618 1.07961 0)
(-0.755895 1.07138 0)
(-0.897673 1.0459 0)
(-1.02621 1.03057 0)
(-1.137 1.01135 0)
(-1.22721 0.956621 3.24575e-16)
(-1.30262 0.857474 -3.2277e-16)
(-1.36488 0.717425 0)
(-1.40195 0.535233 0)
(-1.40202 0.309017 0)
(-1.37285 0.0565423 0)
(-1.33508 -0.200381 0)
(-1.29785 -0.451152 0)
(-1.2579 -0.689411 -7.21778e-16)
(-1.21874 -0.907767 1.35919e-15)
(-1.18533 -1.10877 -1.2913e-15)
(-1.17291 -1.29222 6.17779e-16)
(-1.21121 -1.43612 6.02135e-16)
(-1.28583 -1.47639 -6.14048e-16)
(-1.16338 -1.42467 -6.89109e-16)
(-0.606265 -1.0976 9.94802e-16)
(-0.0620027 -0.582223 -1.90465e-15)
(-0.0720778 1.06619 0)
(-0.183307 1.16081 0)
(-0.324274 1.22599 1.2016e-16)
(-0.462773 1.24627 -1.0623e-16)
(-0.587454 1.21489 0)
(-0.700379 1.16814 1.91525e-16)
(-0.798934 1.13741 -3.71279e-16)
(-0.877268 1.10326 1.78974e-16)
(-0.934513 1.03116 3.50834e-16)
(-0.979397 0.90945 -3.56135e-16)
(-1.01189 0.74288 -3.74258e-16)
(-1.01588 0.525888 8.22716e-16)
(-0.976229 0.261817 -4.87102e-16)
(-0.913298 -0.0236324 -6.01683e-16)
(-0.87015 -0.293258 -5.35599e-16)
(-0.841277 -0.558705 9.45178e-16)
(-0.813102 -0.797276 0)
(-0.789309 -1.00345 8.05835e-16)
(-0.771161 -1.18 -7.59986e-16)
(-0.76314 -1.33339 0)
(-0.799313 -1.45315 6.94605e-16)
(-0.925315 -1.49081 -1.36597e-15)
(-0.959129 -1.45782 6.97598e-16)
(-0.556379 -1.23774 8.6673e-16)
(-0.043846 -0.614307 -3.13975e-15)
(-0.0474134 1.19905 8.02933e-17)
(-0.120661 1.31102 6.71677e-17)
(-0.225586 1.36735 -1.163e-16)
(-0.328543 1.37382 2.10781e-16)
(-0.421233 1.32141 -4.0394e-16)
(-0.503653 1.25413 2.00579e-16)
(-0.56939 1.2077 0)
(-0.610846 1.15932 3.90631e-16)
(-0.630422 1.06978 -3.92426e-16)
(-0.636697 0.927554 -4.11039e-16)
(-0.629473 0.735968 4.5179e-16)
(-0.583433 0.490963 0)
(-0.476269 0.200766 7.22644e-16)
(-0.367928 -0.0929097 -9.14012e-16)
(-0.36445 -0.37616 1.49706e-15)
(-0.371279 -0.663223 2.16081e-18)
(-0.362775 -0.905001 -2.22643e-15)
(-0.358747 -1.09635 1.01594e-15)
(-0.362623 -1.24898 -9.44088e-16)
(-0.370733 -1.37122 -2.49897e-18)
(-0.398952 -1.46169 1.69022e-15)
(-0.519423 -1.46987 -8.22008e-16)
(-0.594167 -1.37479 0)
(-0.386102 -1.23069 0)
(-0.077827 -0.709616 0)
(-0.0241407 1.27193 0)
(-0.0655874 1.40941 0)
(-0.13314 1.46323 0)
(-0.201424 1.46087 0)
(-0.262897 1.39156 0)
(-0.314936 1.30568 0)
(-0.347269 1.2416 -2.17429e-16)
(-0.35099 1.1795 2.20536e-16)
(-0.328601 1.07477 4.57929e-16)
(-0.290619 0.914327 -5.03235e-16)
(-0.233462 0.703173 -6.02863e-16)
(-0.117879 0.443767 8.31581e-16)
(0.070014 0.124549 0)
(0.158632 -0.168352 -1.80264e-15)
(0.0773959 -0.474583 1.23337e-15)
(0.041598 -0.765167 0)
(0.0396825 -1.00783 0)
(0.0410509 -1.18706 9.79448e-16)
(0.0290555 -1.31806 -1.71735e-15)
(0.00390394 -1.41096 7.88682e-16)
(-0.0327994 -1.47394 7.60617e-16)
(-0.117995 -1.46217 -1.54327e-15)
(-0.168024 -1.33117 8.24158e-16)
(-0.0730588 -1.20301 0)
(0.00913895 -0.954761 -1.32531e-15)
(-0.00319244 1.2957 0)
(-0.0155345 1.46187 0)
(-0.0479313 1.51733 1.15677e-16)
(-0.0825222 1.51073 -1.09564e-16)
(-0.114195 1.42553 0)
(-0.13918 1.31487 2.31651e-16)
(-0.141094 1.2301 -4.90787e-16)
(-0.107276 1.15031 2.5991e-16)
(-0.0392486 1.02797 5.69281e-16)
(0.0481059 0.840476 -6.79763e-16)
(0.148257 0.594741 0)
(0.293416 0.27843 1.57976e-15)
(0.498282 -0.128904 -3.07789e-15)
(0.516714 -0.338198 -1.13504e-15)
(0.440322 -0.604307 -6.92526e-16)
(0.397414 -0.880025 1.01412e-15)
(0.403615 -1.11137 0)
(0.416719 -1.27512 7.29646e-16)
(0.406503 -1.37932 -6.70165e-16)
(0.372909 -1.44161 0)
(0.323876 -1.47259 0)
(0.257922 -1.44516 0)
(0.244759 -1.31173 0)
(0.31292 -1.23128 7.89572e-16)
(0.229008 -0.988085 -2.69728e-15)
(0.0151585 1.27994 0)
(0.0292897 1.47715 0)
(0.028404 1.53992 0)
(0.023942 1.53678 0)
(0.0203079 1.44689 0)
(0.0181093 1.31398 0)
(0.0370534 1.20388 0)
(0.0970772 1.10467 0)
(0.201173 0.969285 0)
(0.332569 0.775486 0)
(0.475133 0.5253 0)
(0.6275 0.222318 0)
(0.735862 -0.116982 0)
(0.753344 -0.458688 0)
(0.721091 -0.77702 0)
(0.716064 -1.0318 0)
(0.746254 -1.21606 0)
(0.769436 -1.33924 0)
(0.756213 -1.41236 0)
(0.7142 -1.4469 0)
(0.660347 -1.44591 0)
(0.610427 -1.40261 0)
(0.594336 -1.28806 0)
(0.6587 -1.12443 0)
(0.649176 -1.11164 0)
(0.0310643 1.2324 0)
(0.0673266 1.46003 0)
(0.0933801 1.52953 0)
(0.115683 1.52951 0)
(0.136975 1.44231 0)
(0.153559 1.29556 0)
(0.184252 1.1516 0)
(0.254246 1.01946 0)
(0.374483 0.86152 0)
(0.529866 0.653965 0)
(0.695944 0.390179 0)
(0.848043 0.0718617 0)
(0.947447 -0.286873 0)
(0.986909 -0.61619 0)
(0.986252 -0.877836 0)
(0.9918 -1.07123 0)
(1.01828 -1.21034 0)
(1.03703 -1.3071 0)
(1.02419 -1.36712 0)
(0.985672 -1.39463 0)
(0.941051 -1.39109 0)
(0.904766 -1.3523 0)
(0.889372 -1.27617 0)
(0.898903 -1.1628 0)
(0.984672 -1.04146 0)
(0.0439494 1.1619 0)
(0.098045 1.4197 0)
(0.14555 1.49736 0)
(0.189077 1.50069 0)
(0.230099 1.41815 0)
(0.263014 1.26793 0)
(0.299966 1.09333 0)
(0.364615 0.918095 0)
(0.474449 0.724055 0)
(0.620612 0.491119 0)
(0.779685 0.211318 0)
(0.917785 -0.113182 0)
(1.01621 -0.446142 0)
(1.07365 -0.740188 0)
(1.09625 -0.961276 0)
(1.12464 -1.11665 0)
(1.16076 -1.22669 0)
(1.18704 -1.30528 0)
(1.18851 -1.35468 0)
(1.16691 -1.37467 0)
(1.14393 -1.36613 0)
(1.12832 -1.32837 0)
(1.13069 -1.26445 0)
(1.14895 -1.18235 0)
(1.18716 -1.05447 0)
(0.0538541 1.07402 0)
(0.121408 1.36145 0)
(0.183155 1.44559 0)
(0.241938 1.452 0)
(0.297897 1.37753 0)
(0.343606 1.23015 0)
(0.384857 1.03899 0)
(0.438121 0.829537 0)
(0.520452 0.600742 0)
(0.631386 0.342901 0)
(0.750493 0.0515852 0)
(0.85354 -0.261075 0)
(0.94758 -0.561163 0)
(1.02165 -0.815927 0)
(1.07832 -1.00869 0)
(1.12491 -1.14503 0)
(1.1685 -1.24227 0)
(1.20493 -1.31166 0)
(1.22652 -1.35403 0)
(1.24661 -1.36916 0)
(1.26013 -1.35873 0)
(1.27596 -1.3233 0)
(1.30199 -1.26318 0)
(1.33967 -1.18513 0)
(1.39226 -1.09869 0)
(0.0601066 0.974487 0)
(0.136714 1.29208 0)
(0.206344 1.382 0)
(0.272996 1.38994 0)
(0.33779 1.32331 0)
(0.392953 1.1836 0)
(0.437996 0.990523 0)
(0.482231 0.765129 0)
(0.537969 0.516666 0)
(0.607181 0.2458 0)
(0.675404 -0.0448499 0)
(0.749889 -0.342127 0)
(0.821148 -0.624715 0)
(0.890568 -0.871814 0)
(0.955587 -1.06641 0)
(1.01943 -1.20549 0)
(1.08495 -1.30038 0)
(1.14849 -1.36268 0)
(1.20351 -1.39738 0)
(1.25344 -1.40664 0)
(1.30013 -1.39246 0)
(1.34975 -1.35697 0)
(1.40559 -1.30205 0)
(1.46748 -1.22808 0)
(1.53449 -1.1363 0)
(0.0602967 0.867934 0)
(0.142551 1.2182 0)
(0.214964 1.31342 0)
(0.283412 1.3217 0)
(0.350678 1.26065 0)
(0.409468 1.13139 0)
(0.456696 0.94605 0)
(0.495492 0.721545 0)
(0.532604 0.470676 0)
(0.571123 0.201872 0)
(0.600115 -0.0779872 0)
(0.629183 -0.373697 0)
(0.652496 -0.670582 0)
(0.698291 -0.943627 0)
(0.769062 -1.15819 0)
(0.853354 -1.30464 0)
(0.944973 -1.39587 0)
(1.03805 -1.4486 0)
(1.12646 -1.47361 0)
(1.20748 -1.47559 0)
(1.28466 -1.4567 0)
(1.3612 -1.41907 0)
(1.4382 -1.36439 0)
(1.51632 -1.29415 0)
(1.59689 -1.2106 0)
(0.0529793 0.759213 0)
(0.13726 1.14228 0)
(0.210681 1.24548 0)
(0.275686 1.25418 0)
(0.338702 1.1973 0)
(0.395611 1.07858 0)
(0.440843 0.905818 0)
(0.474082 0.692631 0)
(0.497505 0.451664 0)
(0.509404 0.19441 0)
(0.501818 -0.0758794 0)
(0.452775 -0.370658 0)
(0.419655 -0.71303 0)
(0.472927 -1.03943 0)
(0.575043 -1.27961 0)
(0.691518 -1.43026 0)
(0.809855 -1.51548 0)
(0.925012 -1.55827 0)
(1.03363 -1.57255 0)
(1.13467 -1.56519 0)
(1.22916 -1.53997 0)
(1.31887 -1.49935 0)
(1.40555 -1.44428 0)
(1.49132 -1.37496 0)
(1.5792 -1.29279 0)
(0.039425 0.657712 0)
(0.12173 1.06273 0)
(0.193834 1.17973 0)
(0.253294 1.19267 0)
(0.308021 1.14065 0)
(0.356664 1.03182 0)
(0.394688 0.873796 0)
(0.418921 0.677379 0)
(0.427461 0.454271 0)
(0.419316 0.217827 0)
(0.368286 -0.023416 0)
(0.215513 -0.320044 0)
(0.212758 -0.763309 0)
(0.325181 -1.15584 0)
(0.462654 -1.41309 0)
(0.59937 -1.56118 0)
(0.730009 -1.63766 0)
(0.852746 -1.6698 0)
(0.965965 -1.67344 0)
(1.06924 -1.65741 0)
(1.16378 -1.62682 0)
(1.25169 -1.58406 0)
(1.33571 -1.52938 0)
(1.4197 -1.46263 0)
(1.50779 -1.38472 0)
(0.0262527 0.574098 0)
(0.100305 0.98132 0)
(0.168338 1.11564 0)
(0.220408 1.13959 0)
(0.263973 1.0956 0)
(0.301043 0.998194 0)
(0.327493 0.856468 0)
(0.338866 0.68046 0)
(0.330284 0.481832 0)
(0.310437 0.27453 0)
(0.245194 0.0715355 0)
(0.0630963 -0.23974 0)
(0.155361 -0.841488 0)
(0.295466 -1.27558 0)
(0.437482 -1.53888 0)
(0.575476 -1.68231 0)
(0.706066 -1.75055 0)
(0.826917 -1.77357 0)
(0.936314 -1.76911 0)
(1.03415 -1.74714 0)
(1.12244 -1.71287 0)
(1.20436 -1.66847 0)
(1.28366 -1.61448 0)
(1.3641 -1.55086 0)
(1.44894 -1.47868 0)
(0.0170185 0.515662 0)
(0.0788322 0.907891 0)
(0.138291 1.05549 0)
(0.181559 1.09544 0)
(0.213987 1.06596 0)
(0.2377 0.983089 0)
(0.249966 0.860004 0)
(0.246108 0.707113 0)
(0.21962 0.536049 0)
(0.198355 0.359392 0)
(0.113306 0.179136 0)
(0.044047 -0.201237 0)
(0.166605 -0.923185 0)
(0.299122 -1.38704 0)
(0.438568 -1.65902 0)
(0.577197 -1.80147 0)
(0.708563 -1.86448 0)
(0.829279 -1.88083 0)
(0.937954 -1.86949 0)
(1.03535 -1.84101 0)
(1.124 -1.80118 0)
(1.20688 -1.75308 0)
(1.28702 -1.69819 0)
(1.36732 -1.63698 0)
(1.44981 -1.56948 0)
(0.0110447 0.481951 0)
(0.0597028 0.848463 0)
(0.108948 1.00211 0)
(0.142755 1.06105 0)
(0.16373 1.05027 0)
(0.173879 0.989067 0)
(0.171368 0.887724 0)
(0.152884 0.760998 0)
(0.114934 0.619359 0)
(0.0610867 0.482025 0)
(-0.0257131 0.349976 0)
(0.0355866 -0.248279 0)
(0.163673 -1.01922 0)
(0.2984 -1.50837 0)
(0.442519 -1.79067 0)
(0.585419 -1.93345 0)
(0.720541 -1.99152 0)
(0.844968 -1.99999 0)
(0.958009 -1.97919 0)
(1.06071 -1.94111 0)
(1.15525 -1.89309 0)
(1.24397 -1.83941 0)
(1.32925 -1.78199 0)
(1.41322 -1.72092 0)
(1.49714 -1.65541 0)
(0.00667425 0.46771 0)
(0.0449865 0.805187 0)
(0.085536 0.959237 0)
(0.11047 1.03596 0)
(0.121385 1.0503 0)
(0.120093 1.01573 0)
(0.104386 0.943746 0)
(0.0661825 0.850193 0)
(-0.0154393 0.752501 0)
(-0.0935467 0.67104 0)
(-0.080484 0.472205 0)
(0.0191919 -0.357983 0)
(0.164265 -1.13972 0)
(0.309107 -1.64334 0)
(0.458803 -1.9337 0)
(0.605307 -2.07512 0)
(0.74328 -2.12595 0)
(0.870485 -2.12403 0)
(0.986586 -2.09182 0)
(1.09273 -2.0434 0)
(1.19104 -1.98746 0)
(1.28404 -1.92869 0)
(1.37401 -1.86862 0)
(1.46267 -1.80712 0)
(1.5521 -1.74252 0)
(0.00243817 0.463956 0)
(0.0346443 0.775025 0)
(0.0694361 0.928904 0)
(0.0908093 1.02487 0)
(0.0950744 1.06549 0)
(0.0858035 1.06434 0)
(0.0530345 1.03405 0)
(-0.0374992 0.994704 0)
(-0.167507 0.943974 0)
(-0.219569 0.817688 0)
(-0.135481 0.470887 0)
(0.0252766 -0.498381 0)
(0.188566 -1.27013 0)
(0.343195 -1.783 0)
(0.497154 -2.07864 0)
(0.644938 -2.21632 0)
(0.782508 -2.25809 0)
(0.908292 -2.24502 0)
(1.02252 -2.20199 0)
(1.12699 -2.14476 0)
(1.22438 -2.08284 0)
(1.31757 -2.02081 0)
(1.40915 -1.95976 0)
(1.50149 -1.899 0)
(1.59689 -1.83706 0)
(0.00358866 0.459944 0)
(0.0317402 0.752717 0)
(0.064568 0.910258 0)
(0.0835185 1.02514 0)
(0.0883368 1.09542 0)
(0.0727659 1.13302 0)
(-0.00120142 1.15903 0)
(-0.160662 1.16646 0)
(-0.306753 1.09721 0)
(-0.314529 0.869581 0)
(-0.171988 0.415043 0)
(0.0626132 -0.661379 0)
(0.241659 -1.41131 0)
(0.40473 -1.9262 0)
(0.56079 -2.22322 0)
(0.706768 -2.35448 0)
(0.840202 -2.38584 0)
(0.960615 -2.36144 0)
(1.06912 -2.3082 0)
(1.16827 -2.24331 0)
(1.26145 -2.17685 0)
(1.35211 -2.11307 0)
(1.44307 -2.05267 0)
(1.53653 -1.99463 0)
(1.63473 -1.93774 0)
(0.00949546 0.450827 0)
(0.035816 0.735581 0)
(0.0666618 0.902408 0)
(0.0904833 1.03675 0)
(0.100502 1.13333 0)
(0.0676355 1.21353 0)
(-0.06787 1.29083 0)
(-0.27636 1.31618 0)
(-0.426736 1.16468 0)
(-0.335528 0.820064 0)
(-0.123964 0.168096 0)
(0.140046 -0.850468 0)
(0.32976 -1.56425 0)
(0.496648 -2.07319 0)
(0.65042 -2.36674 0)
(0.789943 -2.48849 0)
(0.914886 -2.50788 0)
(1.02624 -2.47153 0)
(1.12602 -2.40819 0)
(1.21755 -2.33635 0)
(1.30481 -2.26634 0)
(1.39133 -2.20211 0)
(1.47967 -2.14383 0)
(1.57181 -2.08994 0)
(1.66932 -2.03899 0)
(0.0208999 0.430165 0)
(0.0490644 0.723144 0)
(0.0807551 0.901403 0)
(0.110892 1.04998 0)
(0.121941 1.17318 0)
(0.0512957 1.30695 0)
(-0.144197 1.41453 0)
(-0.342893 1.39507 0)
(-0.421707 1.1895 0)
(-0.288696 0.780414 0)
(-0.0106724 -0.110668 0)
(0.261224 -1.04767 0)
(0.455927 -1.72483 0)
(0.620472 -2.2188 0)
(0.765755 -2.50364 0)
(0.892703 -2.6127 0)
(1.00377 -2.61905 0)
(1.10167 -2.57087 0)
(1.18936 -2.49836 0)
(1.27089 -2.42108 0)
(1.35047 -2.34937 0)
(1.43136 -2.28644 0)
(1.51571 -2.23148 0)
(1.60467 -2.18243 0)
(1.69912 -2.13758 0)
(0.0368812 0.383799 0)
(0.0705029 0.705168 0)
(0.109068 0.889673 0)
(0.145249 1.05771 0)
(0.143737 1.23152 0)
(0.0366623 1.40725 0)
(-0.160137 1.52004 0)
(-0.325203 1.42441 0)
(-0.373616 1.18244 0)
(-0.214352 0.890819 0)
(0.157745 -0.385866 0)
(0.427436 -1.25517 0)
(0.61777 -1.88661 0)
(0.772693 -2.3571 0)
(0.903063 -2.62714 0)
(1.01115 -2.72043 0)
(1.10286 -2.71372 0)
(1.1829 -2.6551 0)
(1.25517 -2.57562 0)
(1.32437 -2.4956 0)
(1.39471 -2.42483 0)
(1.46887 -2.36524 0)
(1.54807 -2.31495 0)
(1.63284 -2.27151 0)
(1.72373 -2.23295 0)
(0.0612411 0.266049 0)
(0.112051 0.646098 0)
(0.164737 0.853025 0)
(0.186411 1.07488 0)
(0.16142 1.31075 0)
(0.0546373 1.51916 0)
(-0.101399 1.5566 0)
(-0.237011 1.40023 0)
(-0.229197 1.09091 0)
(-0.0199922 0.591531 0)
(0.359355 -0.634814 0)
(0.62857 -1.46837 0)
(0.803726 -2.04393 0)
(0.943421 -2.48365 0)
(1.05374 -2.73221 0)
(1.13792 -2.80663 0)
(1.2061 -2.78787 0)
(1.26509 -2.72114 0)
(1.31974 -2.63784 0)
(1.37533 -2.55856 0)
(1.43569 -2.4918 0)
(1.50247 -2.4378 0)
(1.57589 -2.39365 0)
(1.65583 -2.3565 0)
(1.74234 -2.32469 0)
(0.0936181 -0.0114615 0)
(0.184674 0.505613 0)
(0.233061 0.806215 0)
(0.220549 1.11771 0)
(0.188162 1.41566 0)
(0.125922 1.57044 0)
(0.0275699 1.53267 0)
(-0.0816051 1.28507 0)
(-0.0694758 1.02958 0)
(0.240996 0.178757 0)
(0.61187 -0.92687 0)
(0.845452 -1.66962 0)
(0.997467 -2.18773 0)
(1.11843 -2.59458 0)
(1.2054 -2.81562 0)
(1.26289 -2.86787 0)
(1.30567 -2.83895 0)
(1.34232 -2.76723 0)
(1.37891 -2.68407 0)
(1.42113 -2.60961 0)
(1.47187 -2.55006 0)
(1.53132 -2.50365 0)
(1.59858 -2.46666 0)
(1.6728 -2.43635 0)
(1.75369 -2.41139 0)
(0.131618 -0.565173 0)
(0.252706 0.248088 0)
(0.277349 0.770255 0)
(0.247476 1.16776 0)
(0.240473 1.44144 0)
(0.243578 1.54593 0)
(0.189669 1.4283 0)
(0.110668 1.12982 0)
(0.194152 0.771752 0)
(0.556669 -0.221 0)
(0.869682 -1.17187 0)
(1.05253 -1.83652 0)
(1.18035 -2.31221 0)
(1.28265 -2.68781 0)
(1.34507 -2.87304 0)
(1.37576 -2.90207 0)
(1.39353 -2.86636 0)
(1.40858 -2.79335 0)
(1.42862 -2.71511 0)
(1.45935 -2.64981 0)
(1.50185 -2.60029 0)
(1.55454 -2.56285 0)
(1.61549 -2.53356 0)
(1.68354 -2.51015 0)
(1.75824 -2.49193 0)
(0.131102 -0.895046 0)
(0.28355 0.0169925 0)
(0.300533 0.744823 0)
(0.280255 1.1793 0)
(0.316437 1.42215 0)
(0.380347 1.46488 0)
(0.376358 1.25739 0)
(0.355355 0.937291 0)
(0.550777 0.398814 0)
(0.866678 -0.519762 0)
(1.09395 -1.36123 0)
(1.22976 -1.97161 0)
(1.34075 -2.41936 0)
(1.42421 -2.76282 0)
(1.46144 -2.90374 0)
(1.46764 -2.90796 0)
(1.46268 -2.87283 0)
(1.45878 -2.80159 0)
(1.46608 -2.73368 0)
(1.48861 -2.68153 0)
(1.52482 -2.64387 0)
(1.57155 -2.61593 0)
(1.62644 -2.59432 0)
(1.68827 -2.57777 0)
(1.75666 -2.56622 0)
(0.088148 -1.04361 0)
(0.281215 -0.138146 0)
(0.313956 0.702876 0)
(0.326596 1.1346 0)
(0.405122 1.33688 0)
(0.523335 1.31777 0)
(0.579236 1.06833 0)
(0.642861 0.698373 0)
(0.873037 0.08986 0)
(1.10836 -0.739624 0)
(1.25817 -1.50479 0)
(1.36893 -2.08525 0)
(1.47175 -2.51203 0)
(1.53498 -2.81541 0)
(1.54682 -2.91173 0)
(1.53087 -2.90534 0)
(1.50691 -2.85881 0)
(1.49013 -2.79621 0)
(1.49064 -2.74431 0)
(1.50878 -2.70775 0)
(1.54045 -2.68226 0)
(1.5819 -2.66339 0)
(1.63089 -2.64914 0)
(1.6866 -2.63926 0)
(1.74874 -2.63425 0)
(-0.014486 -0.982054 0)
(0.255777 -0.280812 0)
(0.329364 0.621826 0)
(0.379851 1.04433 0)
(0.493047 1.202 0)
(0.652541 1.13884 0)
(0.768803 0.873113 0)
(0.899203 0.478723 0)
(1.09609 -0.14046 0)
(1.24699 -0.900239 0)
(1.35553 -1.62115 0)
(1.46889 -2.19114 0)
(1.56901 -2.59337 0)
(1.60939 -2.84271 0)
(1.59572 -2.89943 0)
(1.56042 -2.87873 0)
(1.5248 -2.83112 0)
(1.50426 -2.7851 0)
(1.504 -2.75225 0)
(1.52046 -2.73097 0)
(1.54855 -2.71635 0)
(1.58499 -2.70554 0)
(1.6284 -2.69811 0)
(1.67818 -2.69466 0)
(1.73413 -2.69596 0)
(-0.0807956 -0.747913 0)
(0.194213 -0.460457 0)
(0.341843 0.481266 0)
(0.431241 0.902473 0)
(0.569624 1.03489 0)
(0.744839 0.947992 0)
(0.897379 0.678925 0)
(1.04724 0.285706 0)
(1.18405 -0.307414 0)
(1.28099 -1.0205 0)
(1.39825 -1.73998 0)
(1.5365 -2.30452 0)
(1.62799 -2.66384 0)
(1.63701 -2.84901 0)
(1.60689 -2.86135 0)
(1.55982 -2.83689 0)
(1.52302 -2.8021 0)
(1.50631 -2.77598 0)
(1.50857 -2.76089 0)
(1.5242 -2.75225 0)
(1.54891 -2.74643 0)
(1.58073 -2.74262 0)
(1.6189 -2.74156 0)
(1.66321 -2.74426 0)
(1.71345 -2.75157 0)
(-0.0874296 -0.610864 0)
(0.0652097 -0.6987 0)
(0.332657 0.280628 0)
(0.466062 0.733049 0)
(0.615695 0.853689 0)
(0.784686 0.757 0)
(0.937692 0.499729 0)
(1.06895 0.127779 0)
(1.14646 -0.411694 0)
(1.2488 -1.14689 0)
(1.42071 -1.8979 0)
(1.58251 -2.42862 0)
(1.64699 -2.71527 0)
(1.63607 -2.81184 0)
(1.58839 -2.8187 0)
(1.53952 -2.79701 0)
(1.50994 -2.77903 0)
(1.50045 -2.7717 0)
(1.50556 -2.77071 0)
(1.52011 -2.77149 0)
(1.54161 -2.77268 0)
(1.56927 -2.77509 0)
(1.60297 -2.78004 0)
(1.64239 -2.78859 0)
(1.68725 -2.80149 0)
(-0.0788032 -0.490797 0)
(-0.0711743 -0.571534 0)
(0.279715 0.0979165 0)
(0.473081 0.560971 0)
(0.624895 0.680972 0)
(0.77039 0.584258 0)
(0.902728 0.349896 0)
(0.991796 0.0372748 0)
(1.03767 -0.492723 0)
(1.21785 -1.34054 0)
(1.45116 -2.10082 0)
(1.60518 -2.54202 0)
(1.63618 -2.73255 0)
(1.59921 -2.77123 0)
(1.54607 -2.76884 0)
(1.50819 -2.76219 0)
(1.49081 -2.76439 0)
(1.48848 -2.77244 0)
(1.4953 -2.78113 0)
(1.50838 -2.78855 0)
(1.52704 -2.79553 0)
(1.55134 -2.80365 0)
(1.58115 -2.81421 0)
(1.61623 -2.82812 0)
(1.65621 -2.84605 0)
(-0.0509208 -0.402056 0)
(-0.0806651 -0.494609 0)
(0.185981 -0.133865 0)
(0.433156 0.372175 0)
(0.588663 0.526279 0)
(0.711403 0.447919 0)
(0.823471 0.250513 0)
(0.847508 0.0318655 0)
(0.940127 -0.643902 0)
(1.23262 -1.62372 0)
(1.48225 -2.30564 0)
(1.58825 -2.61331 0)
(1.57493 -2.70512 0)
(1.53169 -2.72515 0)
(1.4947 -2.73096 0)
(1.47493 -2.74272 0)
(1.46899 -2.75982 0)
(1.47104 -2.77684 0)
(1.47806 -2.79117 0)
(1.48959 -2.80352 0)
(1.50606 -2.81562 0)
(1.52764 -2.82897 0)
(1.55423 -2.84461 0)