/*--------------------------------*- C++ -*----------------------------------*\
  =========                 |
  \\      /  F ield         | OpenFOAM: The Open Source CFD Toolbox
   \\    /   O peration     | Website:  https://openfoam.org
    \\  /    A nd           | Version:  13
     \\/     M anipulation  |
\*---------------------------------------------------------------------------*/
FoamFile
{
    format      ascii;
    class       volScalarField;
    location    "29";
    object      p;
}
// * * * * * * * * * * * * * * * * * * * * * * * * * * * * * * * * * * * * * //

dimensions      [0 2 -2 0 0 0 0];

internalField   nonuniform List<scalar> 
6440
(
135.185
135.181
135.177
135.173
135.169
135.163
135.153
135.138
135.116
135.088
135.056
135.018
134.976
134.929
134.876
134.821
134.769
134.725
134.693
134.674
134.668
134.67
134.678
134.686
134.69
135.192
135.186
135.181
135.179
135.177
135.171
135.157
135.135
135.106
135.073
135.038
134.998
134.953
134.9
134.841
134.778
134.72
134.673
134.641
134.627
134.628
134.641
134.66
134.675
134.682
135.196
135.187
135.181
135.182
135.183
135.174
135.152
135.118
135.078
135.037
134.997
134.954
134.905
134.847
134.781
134.713
134.651
134.604
134.578
134.572
134.583
134.605
134.63
134.649
134.656
135.184
135.169
135.16
135.158
135.151
135.134
135.103
135.064
135.025
134.986
134.946
134.899
134.845
134.78
134.704
134.627
134.561
134.518
134.504
134.513
134.538
134.57
134.599
134.621
134.628
135.145
135.127
135.107
135.091
135.072
135.05
135.024
134.997
134.971
134.942
134.905
134.856
134.793
134.717
134.633
134.552
134.488
134.455
134.453
134.477
134.514
134.552
134.584
134.604
134.61
135.094
135.076
135.048
135.024
135.006
134.996
134.988
134.975
134.958
134.932
134.891
134.834
134.761
134.676
134.586
134.503
134.446
134.427
134.44
134.477
134.522
134.562
134.586
134.599
134.601
135.053
135.039
135.017
135.002
135.001
135.011
135.02
135.014
134.99
134.951
134.897
134.827
134.745
134.655
134.564
134.487
134.441
134.438
134.467
134.516
134.564
134.592
134.598
134.593
134.588
135.03
135.023
135.017
135.02
135.03
135.055
135.075
135.067
135.027
134.968
134.895
134.811
134.721
134.632
134.551
134.488
134.46
134.476
134.524
134.58
134.619
134.625
134.602
134.583
134.57
135.014
135.008
135.014
135.029
135.056
135.09
135.107
135.083
135.026
134.948
134.857
134.759
134.66
134.571
134.499
134.452
134.441
134.473
134.54
134.609
134.643
134.63
134.592
134.556
134.533
134.988
134.979
134.993
135.018
135.056
135.09
135.089
135.044
134.973
134.878
134.767
134.649
134.539
134.446
134.377
134.338
134.335
134.376
134.455
134.546
134.6
134.592
134.541
134.488
134.454
134.957
134.952
134.967
134.995
135.028
135.043
135.016
134.958
134.871
134.755
134.617
134.479
134.358
134.259
134.189
134.153
134.156
134.204
134.293
134.4
134.486
134.513
134.473
134.408
134.363
134.936
134.937
134.946
134.962
134.972
134.956
134.906
134.829
134.719
134.574
134.412
134.258
134.126
134.02
133.949
133.92
133.937
134.004
134.114
134.249
134.377
134.464
134.458
134.363
134.293
134.932
134.929
134.925
134.915
134.888
134.837
134.765
134.663
134.523
134.345
134.16
133.988
133.842
133.729
133.658
133.639
133.678
133.772
133.911
134.073
134.242
134.398
134.467
134.334
134.226
134.926
134.916
134.891
134.848
134.782
134.7
134.601
134.467
134.288
134.074
133.86
133.665
133.499
133.376
133.305
133.3
133.364
133.492
133.662
133.852
134.05
134.262
134.407
134.287
134.09
134.903
134.881
134.836
134.763
134.665
134.555
134.422
134.244
134.018
133.765
133.513
133.282
133.088
132.951
132.883
132.893
132.986
133.146
133.348
133.563
133.777
134.007
134.205
134.085
133.786
134.849
134.822
134.764
134.667
134.544
134.402
134.226
133.995
133.715
133.411
133.11
132.834
132.611
132.467
132.408
132.436
132.55
132.733
132.956
133.184
133.391
133.589
133.734
133.595
133.199
134.773
134.747
134.68
134.565
134.418
134.241
134.013
133.725
133.385
133.022
132.659
132.336
132.093
131.961
131.925
131.974
132.099
132.29
132.513
132.731
132.884
132.991
132.996
132.737
132.277
134.697
134.67
134.593
134.461
134.286
134.068
133.79
133.444
133.047
132.616
132.192
131.834
131.605
131.521
131.529
131.601
131.731
131.909
132.126
132.303
132.408
132.375
132.184
131.722
131.129
134.64
134.607
134.518
134.365
134.156
133.896
133.574
133.183
132.73
132.247
131.781
131.421
131.25
131.238
131.299
131.399
131.526
131.7
131.9
132.086
132.154
132.069
131.74
131.037
130.209
134.602
134.568
134.466
134.284
134.037
133.739
133.384
132.954
132.461
131.948
131.476
131.153
131.062
131.106
131.214
131.341
131.482
131.66
131.881
132.093
132.224
132.213
132.001
131.421
130.496
134.597
134.559
134.441
134.23
133.957
133.637
133.267
132.825
132.327
131.823
131.377
131.091
131.025
131.075
131.205
131.36
131.522
131.721
131.971
132.245
132.466
132.609
132.737
132.996
133.93
134.627
134.593
134.462
134.227
133.93
133.605
133.24
132.813
132.333
131.852
131.434
131.152
131.067
131.095
131.229
131.4
131.574
131.774
132.029
132.329
132.624
132.884
133.213
133.935
135.367
134.69
134.656
134.511
134.259
133.954
133.634
133.29
132.894
132.449
131.996
131.594
131.308
131.19
131.208
131.334
131.505
131.68
131.878
132.131
132.443
132.778
133.107
133.507
134.164
135.204
134.758
134.73
134.574
134.32
134.018
133.713
133.397
133.04
132.638
132.223
131.848
131.566
131.432
131.431
131.53
131.673
131.83
132.014
132.257
132.562
132.906
133.252
133.638
134.191
134.947
134.823
134.807
134.657
134.409
134.12
133.829
133.54
133.223
132.871
132.506
132.168
131.907
131.762
131.733
131.788
131.889
132.016
132.181
132.406
132.694
133.022
133.351
133.686
134.104
134.657
134.859
134.857
134.743
134.518
134.243
133.972
133.707
133.429
133.127
132.815
132.524
132.285
132.131
132.067
132.072
132.124
132.22
132.366
132.57
132.831
133.127
133.422
133.698
134.007
134.411
134.867
134.873
134.806
134.62
134.388
134.144
133.907
133.666
133.41
133.145
132.888
132.665
132.498
132.396
132.354
132.369
132.441
132.568
132.747
132.974
133.229
133.48
133.704
133.925
134.215
134.851
134.848
134.815
134.708
134.542
134.356
134.163
133.961
133.745
133.512
133.275
133.053
132.867
132.733
132.658
132.644
132.69
132.79
132.936
133.123
133.331
133.537
133.712
133.869
134.069
134.829
134.788
134.767
134.754
134.703
134.607
134.483
134.334
134.156
133.947
133.717
133.483
133.274
133.109
133.002
132.955
132.966
133.029
133.134
133.275
133.435
133.594
133.726
133.834
133.966
134.813
134.733
134.704
134.767
134.847
134.881
134.855
134.776
134.644
134.457
134.224
133.971
133.727
133.524
133.377
133.289
133.255
133.272
133.331
133.425
133.539
133.652
133.744
133.814
133.899
134.806
134.709
134.68
134.765
134.959
135.128
135.221
135.231
135.16
135
134.764
134.479
134.195
133.947
133.758
133.622
133.536
133.503
133.517
133.566
133.637
133.71
133.765
133.805
133.855
134.827
134.72
134.704
134.811
135.055
135.317
135.513
135.616
135.619
135.494
135.247
134.935
134.607
134.32
134.092
133.913
133.786
133.713
133.686
133.692
133.723
133.76
133.785
133.802
133.826
134.89
134.78
134.743
134.858
135.115
135.393
135.6
135.715
135.727
135.625
135.408
135.117
134.813
134.532
134.295
134.106
133.964
133.87
133.812
133.788
133.79
133.796
133.803
133.804
133.796
134.959
134.849
134.781
134.856
135.067
135.308
135.492
135.59
135.595
135.51
135.335
135.105
134.851
134.609
134.397
134.222
134.084
133.982
133.909
133.863
133.837
133.819
133.806
133.799
133.755
134.971
134.853
134.762
134.781
134.916
135.098
135.261
135.36
135.377
135.32
135.194
135.015
134.819
134.624
134.447
134.293
134.167
134.067
133.989
133.926
133.873
133.824
133.797
133.782
133.7
134.889
134.766
134.663
134.644
134.719
134.852
134.991
135.091
135.13
135.108
135.026
134.903
134.754
134.601
134.457
134.327
134.218
134.126
134.047
133.973
133.895
133.834
133.802
133.749
133.635
134.726
134.609
134.504
134.454
134.483
134.568
134.682
134.792
134.862
134.883
134.854
134.775
134.67
134.554
134.439
134.333
134.24
134.161
134.086
134.001
133.925
133.871
133.809
133.707
133.564
134.523
134.412
134.306
134.233
134.217
134.256
134.346
134.471
134.585
134.656
134.674
134.646
134.579
134.496
134.407
134.324
134.25
134.181
134.107
134.032
133.964
133.891
133.79
133.654
133.49
134.309
134.201
134.093
133.991
133.932
133.93
133.997
134.141
134.303
134.425
134.495
134.508
134.482
134.43
134.368
134.305
134.246
134.184
134.117
134.05
133.971
133.869
133.74
133.584
133.404
134.118
134.011
133.892
133.757
133.662
133.625
133.668
133.826
134.033
134.204
134.315
134.371
134.379
134.358
134.32
134.274
134.224
134.166
134.102
134.026
133.927
133.809
133.67
133.504
133.322
133.977
133.867
133.734
133.575
133.448
133.398
133.415
133.568
133.799
134.007
134.154
134.241
134.278
134.28
134.259
134.225
134.178
134.122
134.054
133.966
133.862
133.741
133.596
133.43
133.242
133.91
133.795
133.649
133.466
133.333
133.273
133.283
133.405
133.628
133.854
134.022
134.13
134.185
134.2
134.19
134.16
134.117
134.061
133.989
133.901
133.797
133.671
133.523
133.353
133.162
133.925
133.807
133.655
133.481
133.347
133.269
133.272
133.353
133.541
133.761
133.932
134.045
134.105
134.125
134.118
134.093
134.051
133.995
133.924
133.834
133.725
133.597
133.447
133.277
133.086
134.025
133.913
133.77
133.613
133.519
133.449
133.429
133.433
133.555
133.736
133.887
133.988
134.044
134.063
134.056
134.029
133.988
133.93
133.855
133.763
133.653
133.523
133.374
133.205
133.014
134.193
134.095
133.97
133.85
133.766
133.72
133.67
133.601
133.651
133.776
133.885
133.966
134.006
134.017
134.004
133.974
133.929
133.866
133.789
133.695
133.584
133.455
133.306
133.138
132.948
134.401
134.324
134.216
134.125
134.046
133.999
133.904
133.798
133.799
133.862
133.926
133.971
133.991
133.987
133.965
133.928
133.876
133.81
133.73
133.634
133.521
133.392
133.244
133.077
132.89
134.609
134.554
134.457
134.378
134.306
134.235
134.109
134.002
133.97
133.974
133.991
134.001
133.993
133.972
133.938
133.891
133.833
133.762
133.678
133.579
133.465
133.335
133.188
133.023
132.839
134.778
134.741
134.656
134.565
134.5
134.423
134.311
134.214
134.145
134.091
134.069
134.039
134.006
133.967
133.92
133.865
133.799
133.722
133.634
133.532
133.417
133.287
133.14
132.978
132.796
134.881
134.864
134.804
134.726
134.677
134.624
134.532
134.419
134.299
134.196
134.135
134.08
134.025
133.97
133.911
133.846
133.772
133.69
133.597
133.493
133.376
133.246
133.101
132.939
132.762
134.91
134.914
134.9
134.874
134.865
134.829
134.721
134.574
134.411
134.279
134.194
134.117
134.046
133.977
133.907
133.833
133.753
133.665
133.568
133.461
133.343
133.212
133.068
132.91
132.736
134.892
134.906
134.936
134.968
134.998
134.956
134.825
134.658
134.478
134.346
134.242
134.151
134.067
133.987
133.908
133.826
133.739
133.646
133.546
133.436
133.317
133.186
133.044
132.887
132.717
134.866
134.878
134.929
134.993
135.029
134.977
134.848
134.684
134.512
134.388
134.277
134.176
134.084
133.996
133.909
133.821
133.73
133.633
133.529
133.417
133.297
133.167
133.025
132.872
132.706
134.852
134.855
134.9
134.971
134.986
134.938
134.827
134.674
134.528
134.41
134.296
134.193
134.097
134.004
133.912
133.819
133.723
133.623
133.517
133.404
133.283
133.153
133.013
132.862
132.701
134.858
134.847
134.865
134.917
134.925
134.889
134.794
134.654
134.53
134.416
134.307
134.203
134.106
134.01
133.915
133.818
133.719
133.616
133.508
133.394
133.273
133.144
133.006
132.859
132.701
134.884
134.858
134.846
134.855
134.869
134.842
134.749
134.635
134.528
134.417
134.311
134.211
134.112
134.014
133.917
133.818
133.717
133.612
133.503
133.388
133.268
133.14
133.005
132.86
132.707
134.917
134.88
134.853
134.839
134.842
134.805
134.711
134.619
134.52
134.415
134.313
134.213
134.115
134.017
133.918
133.818
133.715
133.61
133.5
133.386
133.266
133.14
133.006
132.866
132.716
134.942
134.908
134.881
134.869
134.848
134.782
134.696
134.609
134.512
134.412
134.313
134.215
134.117
134.019
133.919
133.818
133.715
133.609
133.499
133.385
133.267
133.142
133.012
132.874
132.73
134.958
134.937
134.921
134.904
134.86
134.771
134.692
134.601
134.506
134.41
134.313
134.215
134.118
134.019
133.92
133.819
133.715
133.609
133.5
133.387
133.27
133.148
133.019
132.886
132.745
134.967
134.959
134.958
134.932
134.865
134.765
134.687
134.595
134.501
134.407
134.31
134.214
134.117
134.019
133.92
133.819
133.716
133.611
133.502
133.39
133.275
133.155
133.03
132.899
132.764
134.973
134.973
134.981
134.948
134.861
134.767
134.682
134.59
134.496
134.403
134.308
134.212
134.116
134.018
133.919
133.819
133.717
133.612
133.505
133.395
133.281
133.163
133.041
132.916
132.784
134.979
134.984
134.988
134.949
134.849
134.768
134.676
134.584
134.491
134.398
134.303
134.209
134.113
134.017
133.919
133.819
133.718
133.614
133.508
133.4
133.288
133.173
133.055
132.932
132.805
134.983
134.993
134.991
134.939
134.833
134.757
134.667
134.576
134.485
134.392
134.299
134.205
134.11
134.014
133.917
133.818
133.718
133.616
133.512
133.405
133.296
133.184
133.068
132.95
132.827
134.984
134.999
134.991
134.923
134.823
134.745
134.657
134.567
134.477
134.385
134.292
134.2
134.106
134.011
133.915
133.817
133.719
133.618
133.516
133.411
133.304
133.195
133.083
132.968
132.85
134.984
134.999
134.988
134.904
134.82
134.735
134.646
134.557
134.468
134.377
134.286
134.193
134.1
134.007
133.912
133.816
133.719
133.62
133.519
133.417
133.313
133.206
133.097
132.987
132.872
134.984
134.996
134.98
134.884
134.81
134.723
134.634
134.546
134.457
134.367
134.277
134.186
134.094
134.002
133.908
133.814
133.718
133.621
133.523
133.423
133.321
133.218
133.112
133.004
132.895
134.988
134.996
134.966
134.862
134.792
134.707
134.62
134.533
134.445
134.356
134.267
134.177
134.086
133.995
133.903
133.81
133.717
133.622
133.525
133.428
133.329
133.229
133.126
133.023
132.916
134.989
134.996
134.943
134.846
134.772
134.69
134.605
134.519
134.432
134.344
134.255
134.167
134.078
133.988
133.897
133.806
133.714
133.621
133.528
133.433
133.336
133.239
133.14
133.04
132.938
134.982
134.99
134.918
134.835
134.755
134.672
134.588
134.502
134.416
134.33
134.243
134.155
134.067
133.979
133.891
133.801
133.711
133.621
133.529
133.437
133.343
133.249
133.153
133.057
132.958
134.967
134.977
134.89
134.821
134.736
134.652
134.569
134.484
134.399
134.314
134.228
134.142
134.056
133.969
133.882
133.795
133.707
133.619
133.53
133.44
133.349
133.258
133.166
133.072
132.978
134.956
134.965
134.86
134.797
134.713
134.63
134.547
134.464
134.38
134.296
134.211
134.127
134.042
133.958
133.873
133.788
133.702
133.616
133.53
133.443
133.355
133.266
133.177
133.087
132.996
134.954
134.951
134.833
134.771
134.688
134.605
134.523
134.441
134.358
134.276
134.193
134.11
134.028
133.945
133.863
133.78
133.696
133.613
133.529
133.444
133.359
133.274
133.188
133.101
133.014
134.954
134.933
134.811
134.742
134.66
134.577
134.496
134.415
134.334
134.253
134.173
134.092
134.012
133.931
133.851
133.77
133.689
133.608
133.527
133.445
133.363
133.281
133.198
133.114
133.03
134.942
134.903
134.788
134.71
134.627
134.546
134.466
134.387
134.308
134.229
134.15
134.072
133.994
133.916
133.838
133.76
133.681
133.603
133.524
133.445
133.366
133.286
133.207
133.126
133.046
134.914
134.861
134.756
134.672
134.591
134.511
134.433
134.356
134.279
134.203
134.127
134.05
133.975
133.899
133.824
133.748
133.673
133.597
133.521
133.444
133.368
133.291
133.214
133.137
133.06
134.87
134.805
134.712
134.627
134.548
134.471
134.396
134.322
134.248
134.174
134.101
134.028
133.955
133.882
133.809
133.736
133.663
133.59
133.516
133.443
133.369
133.295
133.221
133.147
133.073
134.808
134.734
134.655
134.575
134.501
134.428
134.356
134.285
134.215
134.144
134.074
134.003
133.933
133.863
133.793
133.723
133.652
133.582
133.511
133.44
133.37
133.299
133.227
133.156
133.085
134.728
134.656
134.59
134.518
134.449
134.381
134.314
134.247
134.179
134.112
134.045
133.978
133.911
133.843
133.776
133.709
133.641
133.573
133.505
133.437
133.369
133.301
133.232
133.164
133.095
134.64
134.578
134.522
134.457
134.395
134.332
134.27
134.207
134.143
134.079
134.016
133.951
133.887
133.823
133.759
133.694
133.629
133.564
133.499
133.433
133.368
133.302
133.236
133.171
133.105
134.551
134.5
134.452
134.396
134.34
134.283
134.225
134.166
134.106
134.046
133.985
133.925
133.864
133.802
133.741
133.679
133.616
133.554
133.491
133.429
133.366
133.303
133.24
133.176
133.113
134.466
134.424
134.384
134.335
134.285
134.233
134.18
134.125
134.069
134.013
133.955
133.898
133.84
133.781
133.722
133.663
133.604
133.544
133.484
133.424
133.363
133.303
133.242
133.181
133.121
134.386
134.352
134.318
134.275
134.232
134.184
134.135
134.085
134.033
133.98
133.926
133.871
133.816
133.76
133.704
133.648
133.591
133.533
133.476
133.418
133.36
133.302
133.244
133.186
133.128
134.313
134.285
134.256
134.219
134.18
134.137
134.093
134.046
133.997
133.947
133.897
133.845
133.793
133.74
133.686
133.632
133.578
133.523
133.468
133.413
133.357
133.301
133.246
133.19
133.134
134.246
134.222
134.198
134.166
134.131
134.092
134.051
134.008
133.963
133.916
133.869
133.82
133.77
133.72
133.669
133.618
133.565
133.513
133.46
133.407
133.354
133.3
133.247
133.193
133.14
134.184
134.165
134.145
134.116
134.085
134.05
134.012
133.972
133.93
133.886
133.841
133.795
133.749
133.701
133.652
133.603
133.553
133.503
133.452
133.401
133.35
133.299
133.248
133.196
133.145
134.129
134.112
134.095
134.069
134.042
134.009
133.975
133.937
133.898
133.858
133.815
133.772
133.727
133.682
133.636
133.589
133.541
133.493
133.445
133.396
133.347
133.298
133.248
133.199
133.15
134.079
134.064
134.049
134.026
134.001
133.971
133.939
133.905
133.868
133.83
133.79
133.749
133.707
133.664
133.62
133.575
133.53
133.484
133.437
133.39
133.343
133.296
133.248
133.201
133.153
134.034
134.021
134.007
133.986
133.963
133.936
133.906
133.874
133.84
133.804
133.766
133.728
133.688
133.647
133.605
133.562
133.519
133.474
133.43
133.385
133.339
133.294
133.248
133.202
133.156
133.993
133.981
133.969
133.949
133.929
133.903
133.876
133.845
133.813
133.779
133.744
133.707
133.669
133.63
133.59
133.549
133.508
133.465
133.422
133.379
133.335
133.291
133.247
133.203
133.159
133.957
133.946
133.935
133.917
133.898
133.873
133.848
133.819
133.789
133.757
133.723
133.688
133.652
133.615
133.577
133.537
133.497
133.456
133.415
133.373
133.331
133.289
133.246
133.203
133.161
133.925
133.915
133.906
133.888
133.87
133.847
133.822
133.795
133.766
133.736
133.704
133.671
133.636
133.601
133.564
133.526
133.488
133.448
133.408
133.368
133.327
133.286
133.245
133.204
133.162
133.897
133.889
133.88
133.863
133.846
133.824
133.801
133.775
133.747
133.718
133.687
133.655
133.622
133.588
133.552
133.516
133.479
133.441
133.402
133.363
133.324
133.284
133.244
133.203
133.163
133.874
133.866
133.858
133.842
133.825
133.804
133.782
133.757
133.73
133.702
133.672
133.641
133.609
133.576
133.542
133.507
133.47
133.434
133.396
133.358
133.32
133.281
133.242
133.203
133.164
133.856
133.848
133.84
133.824
133.809
133.788
133.766
133.742
133.716
133.688
133.66
133.63
133.598
133.566
133.533
133.498
133.463
133.427
133.391
133.354
133.317
133.279
133.241
133.203
133.165
133.842
133.834
133.827
133.811
133.795
133.775
133.753
133.729
133.704
133.677
133.649
133.62
133.589
133.557
133.525
133.491
133.457
133.422
133.386
133.35
133.314
133.277
133.24
133.202
133.166
133.834
133.825
133.817
133.801
133.785
133.765
133.743
133.719
133.694
133.668
133.64
133.611
133.581
133.55
133.518
133.485
133.452
133.417
133.382
133.347
133.311
133.275
133.238
133.202
133.166
133.83
133.82
133.812
133.794
133.778
133.757
133.735
133.712
133.687
133.661
133.633
133.605
133.575
133.544
133.513
133.48
133.447
133.413
133.379
133.344
133.309
133.273
133.237
133.202
133.166
133.829
133.818
133.811
133.792
133.774
133.753
133.73
133.706
133.681
133.655
133.628
133.599
133.57
133.539
133.508
133.476
133.443
133.41
133.376
133.342
133.307
133.272
133.236
133.201
133.166
133.836
133.821
133.815
133.794
133.773
133.751
133.727
133.703
133.678
133.651
133.624
133.596
133.566
133.536
133.505
133.473
133.441
133.408
133.374
133.34
133.305
133.271
133.236
133.201
133.167
133.875
133.841
133.824
133.799
133.775
133.751
133.726
133.701
133.676
133.649
133.622
133.593
133.564
133.534
133.503
133.471
133.439
133.406
133.373
133.339
133.305
133.27
133.236
133.201
133.167
133.951
133.872
133.832
133.802
133.776
133.751
133.726
133.701
133.675
133.648
133.621
133.592
133.563
133.533
133.502
133.471
133.438
133.406
133.372
133.338
133.304
133.27
133.235
133.201
133.167
137.591
137.593
137.595
137.599
137.604
137.611
137.617
137.622
137.625
137.628
137.63
137.633
137.637
137.643
137.648
137.655
137.661
137.668
137.674
137.681
137.687
137.693
137.698
137.7
137.701
137.587
137.588
137.589
137.591
137.596
137.604
137.611
137.618
137.623
137.626
137.628
137.631
137.636
137.641
137.645
137.65
137.656
137.663
137.672
137.682
137.689
137.695
137.699
137.701
137.701
137.584
137.582
137.58
137.581
137.586
137.593
137.602
137.61
137.616
137.621
137.624
137.629
137.634
137.64
137.646
137.651
137.657
137.664
137.672
137.681
137.691
137.697
137.701
137.703
137.703
137.585
137.581
137.579
137.579
137.582
137.588
137.594
137.599
137.604
137.608
137.613
137.619
137.627
137.635
137.643
137.651
137.66
137.67
137.68
137.689
137.698
137.703
137.706
137.707
137.707
137.591
137.587
137.582
137.579
137.582
137.587
137.591
137.592
137.594
137.595
137.598
137.603
137.61
137.619
137.628
137.638
137.65
137.664
137.679
137.693
137.704
137.711
137.714
137.714
137.713
137.604
137.597
137.588
137.581
137.578
137.578
137.579
137.579
137.58
137.579
137.578
137.579
137.581
137.587
137.595
137.605
137.618
137.634
137.653
137.673
137.692
137.707
137.717
137.72
137.719
137.621
137.613
137.595
137.58
137.566
137.556
137.552
137.551
137.551
137.551
137.549
137.548
137.547
137.548
137.552
137.56
137.572
137.589
137.61
137.635
137.663
137.69
137.711
137.724
137.726
137.648
137.639
137.61
137.581
137.552
137.528
137.513
137.509
137.511
137.514
137.518
137.519
137.518
137.517
137.518
137.524
137.536
137.554
137.579
137.609
137.642
137.673
137.702
137.726
137.734
137.692
137.676
137.637
137.592
137.543
137.5
137.465
137.451
137.455
137.468
137.484
137.498
137.505
137.507
137.508
137.512
137.523
137.542
137.569
137.602
137.639
137.676
137.709
137.736
137.748
137.755
137.724
137.674
137.615
137.544
137.473
137.413
137.381
137.385
137.412
137.449
137.482
137.502
137.511
137.512
137.515
137.525
137.547
137.579
137.617
137.659
137.7
137.737
137.765
137.78
137.831
137.781
137.717
137.647
137.551
137.441
137.343
137.288
137.293
137.341
137.402
137.455
137.489
137.507
137.517
137.527
137.544
137.572
137.61
137.654
137.7
137.744
137.781
137.81
137.829
137.923
137.855
137.767
137.682
137.565
137.415
137.267
137.178
137.175
137.239
137.326
137.402
137.457
137.494
137.519
137.542
137.57
137.607
137.651
137.7
137.75
137.797
137.838
137.867
137.885
138.023
137.949
137.838
137.732
137.596
137.426
137.255
137.145
137.12
137.16
137.24
137.33
137.41
137.471
137.516
137.554
137.592
137.635
137.685
137.74
137.795
137.847
137.891
137.924
137.94
138.092
138.04
137.934
137.819
137.686
137.526
137.344
137.184
137.101
137.104
137.174
137.273
137.369
137.447
137.507
137.558
137.604
137.654
137.708
137.768
137.828
137.885
137.934
137.969
137.986
138.121
138.099
138.029
137.922
137.791
137.643
137.469
137.295
137.182
137.154
137.194
137.271
137.355
137.429
137.492
137.548
137.601
137.655
137.715
137.779
137.844
137.905
137.957
137.996
138.014
138.137
138.129
138.1
138.025
137.906
137.761
137.598
137.439
137.322
137.265
137.265
137.302
137.355
137.411
137.466
137.521
137.575
137.634
137.699
137.77
137.84
137.904
137.959
137.999
138.018
138.153
138.151
138.147
138.113
138.027
137.896
137.74
137.586
137.458
137.37
137.328
137.325
137.346
137.381
137.425
137.474
137.527
137.588
137.658
137.734
137.809
137.878
137.935
137.976
137.993
138.165
138.167
138.176
138.172
138.119
138.006
137.852
137.692
137.55
137.435
137.36
137.324
137.317
137.333
137.363
137.404
137.454
137.514
137.585
137.664
137.745
137.819
137.881
137.924
137.942
138.125
138.168
138.187
138.195
138.157
138.057
137.91
137.746
137.588
137.455
137.356
137.293
137.264
137.261
137.279
137.311
137.355
137.412
137.48
137.559
137.641
137.72
137.787
137.84
137.864
137.942
138.106
138.132
138.137
138.102
138.014
137.88
137.722
137.563
137.42
137.306
137.224
137.175
137.155
137.16
137.182
137.219
137.269
137.332
137.406
137.487
137.569
137.643
137.705
137.744
137.078
137.69
137.884
137.94
137.931
137.864
137.75
137.607
137.457
137.319
137.203
137.113
137.052
137.019
137.011
137.022
137.049
137.089
137.142
137.208
137.281
137.357
137.428
137.494
137.538
136.817
137.258
137.519
137.637
137.664
137.624
137.534
137.412
137.279
137.152
137.038
136.946
136.877
136.833
136.812
136.809
136.82
136.844
136.883
136.932
136.991
137.054
137.113
137.168
137.211
136.211
136.76
137.083
137.26
137.333
137.33
137.271
137.175
137.061
136.944
136.836
136.739
136.662
136.603
136.564
136.54
136.528
136.527
136.538
136.561
136.591
136.624
136.654
136.683
136.703
135.705
136.253
136.619
136.844
136.96
136.992
136.963
136.891
136.795
136.689
136.581
136.481
136.391
136.314
136.251
136.199
136.155
136.115
136.084
136.059
136.039
136.018
135.995
135.974
135.97
135.256
135.772
136.155
136.412
136.561
136.623
136.619
136.568
136.486
136.386
136.278
136.167
136.06
135.959
135.865
135.774
135.683
135.588
135.489
135.388
135.278
135.16
135.034
134.916
134.815
134.886
135.344
135.716
135.984
136.151
136.232
136.245
136.208
136.133
136.035
135.919
135.795
135.664
135.53
135.393
135.25
135.093
134.918
134.721
134.495
134.239
133.95
133.64
133.343
133.17
134.585
134.973
135.313
135.572
135.741
135.828
135.848
135.815
135.741
135.637
135.509
135.361
135.199
135.021
134.828
134.613
134.367
134.079
133.735
133.325
132.828
132.236
131.544
130.794
130.013
134.347
134.661
134.953
135.184
135.339
135.419
135.434
135.396
135.314
135.196
135.046
134.869
134.664
134.43
134.164
133.855
133.49
133.046
132.497
131.81
130.939
129.843
128.462
126.898
125.143
134.163
134.403
134.636
134.825
134.951
135.01
135.01
134.956
134.857
134.716
134.537
134.319
134.062
133.76
133.402
132.975
132.457
131.809
130.978
129.9
128.455
126.51
123.709
120.005
113.449
134.028
134.192
134.358
134.495
134.58
134.608
134.581
134.504
134.379
134.207
133.989
133.723
133.402
133.018
132.553
131.984
131.276
130.375
129.188
127.589
125.335
122.18
117.041
110.727
91.059
133.928
134.021
134.116
134.192
134.229
134.217
134.156
134.047
133.888
133.678
133.416
133.091
132.698
132.22
131.633
130.904
129.979
128.783
127.178
124.965
121.658
116.738
106.921
90.4198
30.0846
133.844
133.872
133.902
133.916
133.899
133.843
133.742
133.594
133.396
133.143
132.827
132.44
131.966
131.386
130.67
129.77
128.618
127.112
125.082
122.261
118.062
111.732
100.646
82.6891
52.1872
133.761
133.732
133.705
133.66
133.591
133.489
133.345
133.155
132.913
132.611
132.24
131.784
131.227
130.543
129.693
128.623
127.25
125.456
123.051
119.755
115.084
108.341
98.5356
83.9198
66.2684
133.673
133.596
133.519
133.424
133.306
133.157
132.97
132.737
132.449
132.097
131.666
131.143
130.503
129.716
128.737
127.505
125.929
123.881
121.17
117.518
112.527
105.614
96.0988
82.7524
65.6812
133.583
133.464
133.344
133.205
133.043
132.852
132.622
132.346
132.013
131.61
131.124
130.533
129.814
128.929
127.832
126.454
124.699
122.434
119.467
115.533
110.263
103.151
93.6066
80.8346
64.6592
133.492
133.339
133.179
133.003
132.804
132.574
132.306
131.989
131.612
131.163
130.622
129.971
129.178
128.207
127.007
125.503
123.597
121.152
117.978
113.811
108.307
101.009
91.4111
78.9286
63.3868
133.398
133.219
133.029
132.822
132.59
132.326
132.022
131.668
131.253
130.76
130.173
129.466
128.613
127.57
126.284
124.68
122.655
120.069
116.73
112.378
106.662
99.1312
89.2856
76.5106
60.7135
133.304
133.103
132.891
132.658
132.399
132.107
131.773
131.387
130.938
130.409
129.782
129.033
128.13
127.033
125.684
124.007
121.898
119.214
115.757
111.26
105.355
97.5581
87.3216
73.7629
56.9266
133.208
132.996
132.766
132.513
132.232
131.916
131.558
131.146
130.67
130.113
129.457
128.676
127.741
126.608
125.222
123.506
121.352
118.618
115.088
110.493
104.383
96.2772
85.4101
70.5565
51.985
133.119
132.896
132.653
132.384
132.087
131.753
131.376
130.946
130.45
129.874
129.198
128.401
127.449
126.303
124.909
123.19
121.042
118.32
114.796
110.178
103.874
95.3816
83.0358
65.9677
42.9362
133.033
132.803
132.55
132.271
131.962
131.617
131.227
130.784
130.277
129.69
129.008
128.206
127.256
126.12
124.747
123.067
120.982
118.356
114.97
110.525
104.363
95.8425
81.9344
62.2075
25.5526
132.95
132.716
132.458
132.173
131.857
131.505
131.108
130.66
130.149
129.561
128.881
128.09
127.158
126.053
124.73
123.127
121.162
118.716
115.613
111.599
106.183
98.7662
86.7525
69.1337
20.2804
132.873
132.637
132.377
132.09
131.771
131.416
131.019
130.571
130.062
129.482
128.816
128.044
127.146
126.091
124.841
123.346
121.541
119.337
116.606
113.176
108.777
103.083
95.3116
85.8004
66.7755
132.801
132.566
132.307
132.02
131.703
131.35
130.956
130.513
130.014
129.449
128.803
128.063
127.209
126.217
125.057
123.69
122.07
120.133
117.801
114.972
111.52
107.302
102.127
96.0164
88.4562
132.738
132.505
132.248
131.965
131.651
131.303
130.916
130.484
130
129.454
128.837
128.135
127.334
126.414
125.353
124.123
122.693
121.024
119.072
116.793
114.145
111.12
107.772
104.373
101.485
132.682
132.453
132.2
131.922
131.615
131.275
130.899
130.481
130.015
129.494
128.909
128.251
127.506
126.663
125.704
124.612
123.365
121.945
120.333
118.514
116.495
114.312
112.066
109.987
108.446
132.635
132.41
132.163
131.891
131.593
131.264
130.901
130.499
130.055
129.561
129.012
128.4
127.715
126.949
126.09
125.127
124.051
122.852
121.527
120.082
118.541
116.956
115.428
114.128
113.284
132.597
132.377
132.136
131.873
131.584
131.267
130.919
130.536
130.115
129.651
129.139
128.574
127.948
127.256
126.492
125.649
124.724
123.716
122.63
121.478
120.293
119.122
118.047
117.181
116.653
132.567
132.353
132.12
131.865
131.587
131.283
130.951
130.588
130.192
129.758
129.284
128.764
128.196
127.574
126.897
126.162