/*--------------------------------*- C++ -*----------------------------------*\
  =========                 |
  \\      /  F ield         | OpenFOAM: The Open Source CFD Toolbox
   \\    /   O peration     | Website:  https://openfoam.org
    \\  /    A nd           | Version:  13
     \\/     M anipulation  |
\*---------------------------------------------------------------------------*/
FoamFile
{
    format      ascii;
    class       surfaceScalarField;
    location    "29";
    object      phi;
}
// * * * * * * * * * * * * * * * * * * * * * * * * * * * * * * * * * * * * * //

dimensions      [0 3 -1 0 0 0 0];

internalField   nonuniform List<scalar> 
12590
(
5.70745e-13
-5.70769e-13
1.39862e-12
-8.27911e-13
2.07077e-12
-6.7218e-13
2.59383e-12
-5.23094e-13
2.95853e-12
-3.64738e-13
3.18277e-12
-2.24273e-13
3.24576e-12
-6.30244e-14
3.13159e-12
1.14135e-13
2.83299e-12
2.98559e-13
2.35429e-12
4.78669e-13
1.71269e-12
6.4157e-13
9.38758e-13
7.73898e-13
7.04554e-14
8.6827e-13
-8.53965e-13
9.24389e-13
-1.77548e-12
9.2148e-13
-2.62176e-12
8.46252e-13
-3.30737e-12
6.85576e-13
-3.90716e-12
5.99762e-13
-4.42767e-12
5.20479e-13
-4.8626e-12
4.34902e-13
-5.24554e-12
3.82911e-13
-5.39793e-12
1.52368e-13
-5.09267e-12
-3.053e-13
-3.11972e-12
-1.97299e-12
-3.11972e-12
5.63661e-13
-1.13447e-12
1.33247e-12
-1.59677e-12
1.96571e-12
-1.30548e-12
2.51659e-12
-1.07403e-12
3.01261e-12
-8.60804e-13
3.43775e-12
-6.4947e-13
3.80442e-12
-4.29744e-13
4.10564e-12
-1.87139e-13
4.33799e-12
6.61516e-14
4.5006e-12
3.1601e-13
4.59979e-12
5.42326e-13
4.64803e-12
7.25609e-13
4.66537e-12
8.50884e-13
4.67763e-12
9.12086e-13
4.67613e-12
9.22929e-13
4.63468e-12
8.87655e-13
4.54331e-12
7.76903e-13
4.50928e-12
6.33739e-13
4.41202e-12
6.17696e-13
4.22826e-12
6.18622e-13
3.88436e-12
7.26763e-13
3.32676e-12
7.09921e-13
2.42519e-12
5.96221e-13
1.03419e-12
-5.82046e-13
-2.08554e-12
6.9267e-13
-1.82719e-12
1.50838e-12
-2.41255e-12
2.17551e-12
-1.97267e-12
2.78749e-12
-1.68608e-12
3.41958e-12
-1.49296e-12
3.95739e-12
-1.18735e-12
4.44501e-12
-9.17421e-13
4.86885e-12
-6.11046e-13
5.21205e-12
-2.77109e-13
5.46146e-12
6.6542e-14
5.60406e-12
3.99671e-13
5.63126e-12
6.9835e-13
5.54221e-12
9.3988e-13
5.34254e-12
1.11169e-12
5.03982e-12
1.2256e-12
4.62537e-12
1.30205e-12
4.10136e-12
1.30086e-12
3.58761e-12
1.14743e-12
3.07887e-12
1.12639e-12
2.51239e-12
1.18504e-12
1.9454e-12
1.29371e-12
1.40405e-12
1.25122e-12
9.30703e-13
1.06951e-12
3.21048e-13
2.75537e-14
-1.76449e-12
8.51828e-13
-2.67908e-12
1.71564e-12
-3.27643e-12
2.38945e-12
-2.64655e-12
3.00196e-12
-2.29865e-12
3.60069e-12
-2.09176e-12
4.2561e-12
-1.84283e-12
4.7444e-12
-1.40579e-12
5.16011e-12
-1.02682e-12
5.48699e-12
-6.04064e-13
5.70722e-12
-1.53745e-13
5.80319e-12
3.0363e-13
5.76096e-12
7.40521e-13
5.5739e-12
1.12687e-12
5.24714e-12
1.43839e-12
4.80082e-12
1.67186e-12
4.24422e-12
1.85858e-12
3.54626e-12
1.99877e-12
2.72403e-12
1.9696e-12
2.15722e-12
1.69315e-12
1.6208e-12
1.7214e-12
1.06669e-12
1.84777e-12
5.81816e-13
1.73603e-12
3.22006e-13
1.32926e-12
1.0202e-13
2.47478e-13
-1.66248e-12
9.81856e-13
-3.66101e-12
1.85647e-12
-4.15113e-12
2.49619e-12
-3.28636e-12
3.05622e-12
-2.85876e-12
3.58345e-12
-2.61908e-12
4.09783e-12
-2.35729e-12
4.68087e-12
-1.98891e-12
5.02576e-12
-1.37179e-12
5.29562e-12
-8.74006e-13
5.46696e-12
-3.2516e-13
5.52346e-12
2.47065e-13
5.44812e-12
8.15787e-13
5.22815e-12
1.34678e-12
4.86232e-12
1.80416e-12
4.36685e-12
2.16726e-12
3.76779e-12
2.45758e-12
3.05342e-12
2.71307e-12
2.21966e-12
2.8033e-12
1.49882e-12
2.41393e-12
1.03485e-12
2.18531e-12
6.41161e-13
2.2414e-12
2.7765e-13
2.09948e-12
6.49097e-14
1.54193e-12
-1.47313e-14
3.27052e-13
-1.67722e-12
1.07291e-12
-4.73399e-12
1.91801e-12
-4.99632e-12
2.48903e-12
-3.85747e-12
2.96013e-12
-3.32996e-12
3.38209e-12
-3.04114e-12
3.77979e-12
-2.75508e-12
4.19799e-12
-2.40719e-12
4.63518e-12
-1.80907e-12
4.83752e-12
-1.07643e-12
4.9703e-12
-4.58021e-13
5.01704e-12
2.00239e-13
4.9628e-12
8.69952e-13
4.7877e-12
1.5218e-12
4.47766e-12
2.11412e-12
4.03682e-12
2.60804e-12
3.49751e-12
2.99681e-12
2.87085e-12
3.33966e-12
2.07387e-12
3.60021e-12
1.26816e-12
3.21957e-12
7.51213e-13
2.70219e-12
4.53641e-13
2.5389e-12
1.47654e-13
2.4054e-12
-9.63057e-14
1.78581e-12
-1.38988e-13
3.69662e-13
-1.81622e-12
1.13469e-12
-5.86877e-12
1.92627e-12
-5.78802e-12
2.41284e-12
-4.34415e-12
2.78044e-12
-3.69767e-12
3.08625e-12
-3.34706e-12
3.36509e-12
-3.03403e-12
3.64227e-12
-2.68448e-12
4.01522e-12
-2.18212e-12
4.2812e-12
-1.34252e-12
4.38591e-12
-5.62823e-13
4.46186e-12
1.24199e-13
4.48856e-12
8.43157e-13
4.43902e-12
1.57125e-12
4.28084e-12
2.27222e-12
3.99377e-12
2.89502e-12
3.5853e-12
3.4052e-12
3.07835e-12
3.84653e-12
2.41883e-12
4.25966e-12
1.55574e-12
4.08258e-12
9.0953e-13
3.34833e-12
5.34015e-13
2.91435e-12
2.60034e-13
2.67931e-12
-6.5175e-14
2.11094e-12
-1.79749e-13
4.84155e-13
-1.99599e-12
1.17481e-12
-7.04369e-12
1.9045e-12
-6.51783e-12
2.30761e-12
-4.74739e-12
2.57795e-12
-3.96815e-12
2.7832e-12
-3.55243e-12
2.9691e-12
-3.22005e-12
3.1694e-12
-2.88489e-12
3.44099e-12
-2.45383e-12
3.77794e-12
-1.67958e-12
3.90551e-12
-6.90501e-13
4.0603e-12
-3.06861e-14
4.22424e-12
6.79115e-13
4.36948e-12
1.42591e-12
4.45117e-12
2.19044e-12
4.41752e-12
2.92859e-12
4.23877e-12
3.58387e-12
3.9367e-12
4.14852e-12
3.4963e-12
4.69998e-12
2.5367e-12
5.0421e-12
1.69406e-12
4.19089e-12
1.06631e-12
3.54202e-12
6.60909e-13
3.08463e-12
1.96918e-13
2.57484e-12
-1.1637e-13
7.97356e-13
-2.11237e-12
1.19967e-12
-8.24348e-12
1.87564e-12
-7.19395e-12
2.21772e-12
-5.08961e-12
2.42465e-12
-4.17524e-12
2.57653e-12
-3.70445e-12
2.72928e-12
-3.37294e-12
2.92012e-12
-3.07586e-12
3.18337e-12
-2.71721e-12
3.53766e-12
-2.034e-12
3.78185e-12
-9.34802e-13
4.06539e-12
-3.14338e-13
4.41358e-12
3.30812e-13
4.80201e-12
1.03739e-12
5.18021e-12
1.81214e-12
5.47074e-12
2.63797e-12
5.59136e-12
3.46315e-12
5.49671e-12
4.24309e-12
5.16711e-12
5.0295e-12
4.42223e-12
5.78689e-12
3.27044e-12
5.3426e-12
2.21122e-12
4.60116e-12
1.3983e-12
3.89747e-12
7.49523e-13
3.22352e-12
3.39722e-14
1.51282e-12
-2.07842e-12
1.21335e-12
-9.45698e-12
1.85858e-12
-7.83936e-12
2.18299e-12
-5.4142e-12
2.38787e-12
-4.3803e-12
2.56583e-12
-3.88258e-12
2.77959e-12
-3.58686e-12
3.06267e-12
-3.3591e-12
3.43306e-12
-3.08774e-12
3.87668e-12
-2.47775e-12
4.35022e-12
-1.40847e-12
4.82089e-12
-7.85123e-13
5.40543e-12
-2.5385e-13
6.07553e-12
3.67182e-13
6.78173e-12
1.10584e-12
7.4402e-12
1.97941e-12
7.92929e-12
2.97397e-12
8.13307e-12
4.03922e-12
7.99011e-12
5.17237e-12
7.40416e-12
6.37276e-12
5.89663e-12
6.85004e-12
4.27157e-12
6.22613e-12
2.75565e-12
5.41331e-12
1.73124e-12
4.24783e-12
1.89367e-13
3.05459e-12
-1.88907e-12
1.21889e-12
-1.0676e-11
1.87036e-12
-8.49103e-12
2.24245e-12
-5.7865e-12
2.53649e-12
-4.67454e-12
2.85657e-12
-4.20285e-12
3.26955e-12
-4.00002e-12
3.80231e-12
-3.89204e-12
4.45679e-12
-3.74239e-12
5.19443e-12
-3.21554e-12
5.89714e-12
-2.11131e-12
6.718e-12
-1.60612e-12
7.6384e-12
-1.17437e-12
8.64278e-12
-6.37303e-13
9.69338e-12
5.51326e-14
1.07171e-11
9.55614e-13
1.1591e-11
2.09996e-12
1.21466e-11
3.4835e-12
1.22396e-11
5.07935e-12
1.17522e-11
6.86005e-12
1.01359e-11
8.46623e-12
7.62797e-12
8.73399e-12
4.96681e-12
8.07439e-12
2.80132e-12
6.41322e-12
6.89275e-13
5.16655e-12
-1.19982e-12
1.21866e-12
-1.18949e-11
1.92691e-12
-9.19951e-12
2.43432e-12
-6.29415e-12
2.93806e-12
-5.17851e-12
3.55048e-12
-4.8155e-12
4.33775e-12
-4.78749e-12
5.31637e-12
-4.87084e-12
6.46307e-12
-4.88927e-12
7.72008e-12
-4.4727e-12
8.89923e-12
-3.29061e-12
1.02716e-11
-2.97862e-12
1.16847e-11
-2.58761e-12
1.31235e-11
-2.07623e-12
1.45554e-11
-1.37681e-12
1.59246e-11
-4.13651e-13
1.71297e-11
8.94693e-13
1.80087e-11
2.60446e-12
1.83466e-11
4.74138e-12
1.78815e-11
7.32503e-12
1.62194e-11
1.01283e-11
1.26942e-11
1.2259e-11
8.3906e-12
1.23779e-11
4.33188e-12
1.04718e-11
1.37248e-12
8.12586e-12
1.72644e-13
1.21526e-12
-1.31104e-11
2.04426e-12
-1.00288e-11
2.79592e-12
-7.04608e-12
3.65689e-12
-6.03974e-12
4.74211e-12
-5.90097e-12
6.11173e-12
-6.15733e-12
7.76495e-12
-6.52427e-12
9.64205e-12
-6.76655e-12
1.16513e-11
-6.48214e-12
1.37796e-11
-5.41905e-12
1.59978e-11
-5.19692e-12
1.82325e-11
-4.82248e-12
2.04712e-11
-4.31496e-12
2.26063e-11
-3.51199e-12
2.45273e-11
-2.33479e-12
2.61018e-11
-6.79862e-13
2.71199e-11
1.58626e-12
2.7288e-11
4.57325e-12
2.63275e-11
8.28539e-12
2.4003e-11
1.24528e-11
1.9969e-11
1.6293e-11
1.38845e-11
1.84624e-11
7.10283e-12
1.72534e-11
2.34164e-12
1.2887e-11
2.51427e-12
1.21161e-12
-1.43222e-11
2.23672e-12
-1.10542e-11
3.35787e-12
-8.16752e-12
4.74376e-12
-7.4259e-12
6.50498e-12
-7.66245e-12
8.69518e-12
-8.34778e-12
1.12999e-11
-9.12917e-12
1.41848e-11
-9.65172e-12
1.72505e-11
-9.54798e-12
2.08008e-11
-8.96946e-12
2.45642e-11
-8.96049e-12
2.82777e-11
-8.53608e-12
3.16034e-11
-7.6408e-12
3.44362e-11
-6.34485e-12
3.66758e-11
-4.57441e-12
3.82374e-11
-2.24161e-12
3.90353e-11
7.8835e-13
3.89155e-11
4.69297e-12
3.75425e-11
9.6583e-12
3.43673e-11
1.5628e-11
2.90076e-11
2.16526e-11
2.12736e-11
2.61963e-11
1.24395e-11
2.60875e-11
3.90352e-12
2.14229e-11
6.41778e-12
1.20672e-12
-1.55292e-11
2.50745e-12
-1.23552e-11
4.13015e-12
-9.79051e-12
6.20584e-12
-9.50186e-12
8.81892e-12
-1.02758e-11
1.20261e-11
-1.15552e-11
1.57962e-11
-1.28995e-11
2.00993e-11
-1.39551e-11
2.44972e-11
-1.3946e-11
2.96153e-11
-1.40877e-11
3.47697e-11
-1.41151e-11
3.97319e-11
-1.34984e-11
4.42907e-11
-1.21997e-11
4.82185e-11
-1.02727e-11
5.12947e-11
-7.65067e-12
5.33585e-11
-4.30546e-12
5.42988e-11
-1.51972e-13
5.40158e-11
4.97586e-12
5.23382e-11
1.13358e-11
4.87399e-11
1.92262e-11
4.18708e-11
2.85218e-11
3.17676e-11
3.62995e-11
1.9283e-11
3.85721e-11
6.90905e-12
3.37968e-11
1.33268e-11
1.1856e-12
-1.67151e-11
2.76271e-12
-1.39326e-11
4.93246e-12
-1.19605e-11
7.88178e-12
-1.24514e-11
1.17282e-11
-1.41225e-11
1.63908e-11
-1.6218e-11
2.17045e-11
-1.82135e-11
2.73486e-11
-1.95993e-11
3.37667e-11
-2.03643e-11
4.07841e-11
-2.11053e-11
4.78437e-11
-2.11748e-11
5.478e-11
-2.04349e-11
6.1334e-11
-1.87538e-11
6.70583e-11
-1.59972e-11
7.1704e-11
-1.22964e-11
7.49479e-11
-7.54937e-12
7.64991e-11
-1.70328e-12
7.61099e-11
5.36506e-12
7.35578e-11
1.38879e-11
6.85788e-11
2.42052e-11
6.06079e-11
3.64926e-11
4.76816e-11
4.92257e-11
3.0519e-11
5.57347e-11
1.19888e-11
5.2327e-11
2.53156e-11
1.18983e-12
-1.79051e-11
3.27355e-12
-1.60165e-11
6.41683e-12
-1.5104e-11
1.05567e-11
-1.65916e-11
1.57067e-11
-1.92727e-11
2.17839e-11
-2.22954e-11
2.85486e-11
-2.49785e-11
3.62061e-11
-2.72571e-11
4.50332e-11
-2.91915e-11
5.43371e-11
-3.04094e-11
6.38571e-11
-3.0695e-11
7.32527e-11
-2.98305e-11
8.21506e-11
-2.76519e-11
9.04115e-11
-2.42581e-11
9.73979e-11
-1.92829e-11
1.02794e-10
-1.29453e-11
1.06108e-10
-5.01729e-12
1.06841e-10
4.63148e-12
1.04529e-10
1.62002e-11
9.87163e-11
3.00176e-11
8.85372e-11
4.66717e-11
7.28681e-11
6.48948e-11
5.01073e-11
7.84954e-11
2.13318e-11
8.11025e-11
4.66474e-11
1.31368e-12
-1.92189e-11
4.05956e-12
-1.87625e-11
8.11528e-12
-1.91599e-11
1.34868e-11
-2.19633e-11
2.01338e-11
-2.59199e-11
2.76366e-11
-2.97985e-11
3.6392e-11
-3.37342e-11
4.66002e-11
-3.74656e-11
5.77793e-11
-4.03709e-11
6.96559e-11
-4.22863e-11
8.1995e-11
-4.30343e-11
9.44911e-11
-4.23269e-11
1.06404e-10
-3.9565e-11
1.17515e-10
-3.53696e-11
1.2772e-10
-2.94881e-11
1.36277e-10
-2.15016e-11
1.42763e-10
-1.15034e-11
1.46613e-10
7.80936e-13
1.47118e-10
1.56949e-11
1.43497e-10
3.36388e-11
1.34215e-10
5.59531e-11
1.15943e-10
8.31673e-11
8.68663e-11
1.07572e-10
4.13088e-11
1.2666e-10
8.79562e-11
1.4457e-12
-2.06647e-11
4.85105e-12
-2.2168e-11
9.96766e-12
-2.42766e-11
1.67224e-11
-2.87182e-11
2.46651e-11
-3.38628e-11
3.4635e-11
-3.97686e-11
4.60446e-11
-4.51441e-11
5.8639e-11
-5.00603e-11
7.22408e-11
-5.3973e-11
8.66446e-11
-5.66905e-11
1.01593e-10
-5.79834e-11
1.16853e-10
-5.75865e-11
1.32522e-10
-5.52345e-11
1.48e-10
-5.08476e-11
1.6143e-10
-4.29188e-11
1.74058e-10
-3.41296e-11
1.84781e-10
-2.22265e-11
1.93121e-10
-7.55903e-12
1.9881e-10
1.00053e-11
2.01763e-10
3.06855e-11
2.00453e-10
5.7263e-11
1.88583e-10
9.50376e-11
1.56276e-10
1.39879e-10
9.25665e-11
1.9037e-10
1.80523e-10
1.62864e-12
-2.22934e-11
5.78874e-12
-2.63281e-11
1.20865e-11
-3.05746e-11
2.03271e-11
-3.69589e-11
3.07197e-11
-4.42558e-11
4.28854e-11
-5.19347e-11
5.682e-11
-5.90791e-11
7.21367e-11
-6.53775e-11
8.86402e-11
-7.04768e-11
1.06063e-10
-7.41138e-11
1.24119e-10
-7.60395e-11
1.42542e-10
-7.601e-11
1.61119e-10
-7.38122e-11
1.79463e-10
-6.91913e-11
1.98286e-10
-6.17423e-11
2.15615e-10
-5.14587e-11
2.30236e-10
-3.68481e-11
2.43778e-10
-2.11006e-11
2.54179e-10
-3.95768e-13
2.64824e-10
2.00399e-11
2.75271e-10
4.68164e-11
2.87901e-10
8.24071e-11
2.96486e-10
1.31294e-10
2.69022e-10
2.17835e-10
4.49544e-10
1.39176e-12
-2.36851e-11
5.5884e-12
-3.05248e-11
1.19451e-11
-3.69313e-11
2.0172e-11
-4.51861e-11
3.02618e-11
-5.43459e-11
4.19614e-11
-6.36347e-11
5.5249e-11
-7.23672e-11
6.99981e-11
-8.0127e-11
8.61246e-11
-8.66038e-11
1.03547e-10
-9.15371e-11
1.22194e-10
-9.46861e-11
1.42007e-10
-9.5824e-11
1.6293e-10
-9.47359e-11
1.8493e-10
-9.11912e-11
2.08141e-10
-8.49534e-11
2.32517e-10
-7.58346e-11
2.5921e-10
-6.35417e-11
2.86306e-10
-4.8197e-11
3.14706e-10
-2.87955e-11
3.45146e-10
-1.04003e-11
3.79583e-10
1.2379e-11
4.20477e-10
4.1513e-11
4.79813e-10
7.19575e-11
6.14613e-10
8.30353e-11
4.48314e-11
1.01933e-09
1.56244e-12
-2.52476e-11
6.23253e-12
-3.5195e-11
1.33346e-11
-4.40335e-11
2.25649e-11
-5.44167e-11
3.37932e-11
-6.55744e-11
4.68769e-11
-7.67189e-11
6.17343e-11
-8.72251e-11
7.82822e-11
-9.66755e-11
9.6451e-11
-1.04773e-10
1.16188e-10
-1.11274e-10
1.37459e-10
-1.15958e-10
1.60255e-10
-1.1862e-10
1.84586e-10
-1.19068e-10
2.10515e-10
-1.1712e-10
2.38168e-10
-1.12607e-10
2.67737e-10
-1.05404e-10
2.9962e-10
-9.54253e-11
3.34197e-10
-8.27743e-11
3.73178e-10
-6.77757e-11
4.14224e-10
-5.14465e-11
4.60302e-10
-3.36996e-11
5.1611e-10
-1.42947e-11
5.84847e-10
3.22099e-12
6.56946e-10
1.09361e-11
-2.39279e-12
7.0417e-10
1.70087e-12
-2.69484e-11
6.76904e-12
-4.02632e-11
1.45017e-11
-5.17664e-11
2.45725e-11
-6.44877e-11
3.68093e-11
-7.78116e-11
5.10965e-11
-9.10066e-11
6.73444e-11
-1.03473e-10
8.54796e-11
-1.14811e-10
1.05448e-10
-1.24742e-10
1.27218e-10
-1.33045e-10
1.50786e-10
-1.39527e-10
1.76176e-10
-1.4401e-10
2.03443e-10
-1.46335e-10
2.3269e-10
-1.46367e-10
2.64078e-10
-1.43996e-10
2.97834e-10
-1.3916e-10
3.34281e-10
-1.31872e-10
3.73813e-10
-1.22306e-10
4.16793e-10
-1.10756e-10
4.6306e-10
-9.77137e-11
5.12759e-10
-8.33986e-11
5.66263e-10
-6.77989e-11
6.20308e-10
-5.08237e-11
6.62908e-10
-3.16639e-11
-3.09921e-12
6.63614e-10
1.8076e-12
-2.87561e-11
7.18795e-12
-4.56436e-11
1.54304e-11
-6.0009e-11
2.61879e-11
-7.52455e-11
3.92776e-11
-9.09017e-11
5.4579e-11
-1.06308e-10
7.20005e-11
-1.20895e-10
9.14713e-11
-1.34283e-10
1.12946e-10
-1.46217e-10
1.36404e-10
-1.56504e-10
1.61856e-10
-1.64979e-10
1.89341e-10
-1.71494e-10
2.18926e-10
-1.75921e-10
2.50716e-10
-1.78157e-10
2.84849e-10
-1.78129e-10
3.21496e-10
-1.75807e-10
3.60844e-10
-1.71221e-10
4.03004e-10
-1.64466e-10
4.47909e-10
-1.55661e-10
4.95105e-10
-1.4491e-10
5.4358e-10
-1.31873e-10
5.91247e-10
-1.15466e-10
6.33787e-10
-9.33635e-11
6.61346e-10
-5.9223e-11
-1.36333e-12
6.5961e-10
1.87878e-12
-3.06349e-11
7.4846e-12
-5.12495e-11
1.61122e-11
-6.86367e-11
2.74045e-11
-8.6538e-11
4.11693e-11
-1.04667e-10
5.7278e-11
-1.22418e-10
7.56337e-11
-1.39252e-10
9.61644e-11
-1.54814e-10
1.18824e-10
-1.68877e-10
1.43595e-10
-1.81275e-10
1.70484e-10
-1.91869e-10
1.99524e-10
-2.00535e-10
2.30769e-10
-2.07167e-10
2.64292e-10
-2.1168e-10
3.00172e-10
-2.1401e-10
3.3848e-10
-2.14115e-10
3.7923e-10
-2.11971e-10
4.22303e-10
-2.0754e-10
4.67337e-10
-2.00695e-10
5.13496e-10
-1.91069e-10
5.59312e-10
-1.77689e-10
6.02369e-10
-1.58523e-10
6.38667e-10
-1.29661e-10
6.63456e-10
-8.40116e-11
-1.05977e-11
6.7269e-10
1.91577e-12
-3.25507e-11
7.66586e-12
-5.69997e-11
1.65609e-11
-7.75318e-11
2.824e-11
-9.82174e-11
4.25026e-11
-1.1893e-10
5.92119e-11
-1.39127e-10
7.8264e-11
-1.58304e-10
9.95811e-11
-1.76132e-10
1.23111e-10
-1.92407e-10
1.48825e-10
-2.06991e-10
1.7672e-10
-2.19764e-10
2.06807e-10
-2.30622e-10
2.39111e-10
-2.39471e-10
2.73654e-10
-2.46224e-10
3.10445e-10
-2.50801e-10
3.49448e-10
-2.53118e-10
3.90538e-10
-2.53061e-10
4.33433e-10
-2.50435e-10
4.77594e-10
-2.44856e-10
5.22092e-10
-2.35567e-10
5.65523e-10
-2.21119e-10
6.05938e-10
-1.98938e-10
6.41043e-10
-1.64767e-10
6.69192e-10
-1.1216e-10
-3.26118e-11
6.91206e-10
1.92143e-12
-3.44721e-11
7.74104e-12
-6.28193e-11
1.67941e-11
-8.6585e-11
2.87206e-11
-1.10144e-10
4.33135e-11
-1.33523e-10
6.04279e-11
-1.56242e-10
7.9952e-11
-1.77829e-10
1.01799e-10
-1.97979e-10
1.25905e-10
-2.16514e-10
1.52228e-10
-2.33314e-10
1.80744e-10
-2.4828e-10
2.11438e-10
-2.61318e-10
2.44299e-10
-2.72332e-10
2.793e-10
-2.81225e-10
3.16383e-10
-2.87884e-10
3.55432e-10
-2.92167e-10
3.96231e-10
-2.93861e-10
4.38419e-10
-2.92623e-10
4.81427e-10
-2.87865e-10
5.24438e-10
-2.78578e-10
5.66394e-10
-2.63075e-10
6.06133e-10
-2.38676e-10
6.42795e-10
-2.0143e-10
6.76681e-10
-1.46046e-10
-6.64526e-11
7.10522e-10
1.89926e-12
-3.63713e-11
7.72189e-12
-6.86419e-11
1.68343e-11
-9.56975e-11
2.88817e-11
-1.22192e-10
4.36524e-11
-1.48294e-10
6.09947e-11
-1.73585e-10
8.0788e-11
-1.97623e-10
1.02935e-10
-2.20127e-10
1.2736e-10
-2.40939e-10
1.54003e-10
-2.59958e-10
1.82819e-10
-2.77097e-10
2.13768e-10
-2.92267e-10
2.46804e-10
-3.05368e-10
2.81859e-10
-3.16281e-10
3.18832e-10
-3.24858e-10
3.57559e-10
-3.30894e-10
3.9779e-10
-3.34091e-10
4.39162e-10
-3.33995e-10
4.81184e-10
-3.29887e-10
5.23253e-10
-3.20648e-10
5.64744e-10
-3.04565e-10
6.05217e-10
-2.7915e-10
6.44828e-10
-2.41041e-10
6.84948e-10
-1.86166e-10
-1.10378e-10
7.28874e-10
1.85363e-12
-3.82249e-11
7.62166e-12
-7.441e-11
1.67076e-11
-1.04784e-10
2.87648e-11
-1.34249e-10
4.35795e-11
-1.63109e-10
6.09944e-11
-1.91e-10
8.08811e-11
-2.1751e-10
1.03133e-10
-2.42379e-10
1.2766e-10
-2.65467e-10
1.54389e-10
-2.86688e-10
1.83255e-10
-3.05964e-10
2.14195e-10
-3.23207e-10
2.47137e-10
-3.3831e-10
2.81991e-10
-3.51135e-10
3.18631e-10
-3.61498e-10
3.56881e-10
-3.69144e-10
3.96505e-10
-3.73715e-10
4.37195e-10
-3.74686e-10
4.78594e-10
-3.71287e-10
5.20344e-10
-3.62398e-10
5.62212e-10
-3.46432e-10
6.04306e-10
-3.21245e-10
6.4741e-10
-2.84145e-10
6.93385e-10
-2.32142e-10
-1.62516e-10
7.45524e-10
1.78889e-12
-4.00137e-11
7.45458e-12
-8.00756e-11
1.64415e-11
-1.13771e-10
2.84143e-11
-1.46222e-10
4.31596e-11
-1.77855e-10
6.05161e-11
-2.08357e-10
8.03495e-11
-2.37344e-10
1.02545e-10
-2.64575e-10
1.27002e-10
-2.89925e-10
1.53635e-10
-3.13321e-10
1.82364e-10
-3.34693e-10
2.13111e-10
-3.53955e-10
2.45791e-10
-3.7099e-10
2.80301e-10
-3.85645e-10
3.16514e-10
-3.97712e-10
3.54273e-10
-4.06903e-10
3.93381e-10
-4.12824e-10
4.33623e-10
-4.14927e-10
4.74789e-10
-4.12452e-10
5.16749e-10
-4.04358e-10
5.59578e-10
-3.89262e-10
6.03746e-10
-3.65412e-10
6.50363e-10
-3.30761e-10
7.01423e-10
-2.83202e-10
-2.21035e-10
7.59942e-10
1.70959e-12
-4.17232e-11
7.23469e-12
-8.56006e-11
1.60638e-11
-1.226e-10
2.78753e-11
-1.58034e-10
4.24581e-11
-1.92438e-10
5.96495e-11
-2.25549e-10
7.93113e-11
-2.57007e-10
1.01323e-10
-2.86587e-10
1.25577e-10
-3.1418e-10
1.5198e-10
-3.39724e-10
1.80441e-10
-3.63156e-10
2.10877e-10
-3.8439e-10
2.43196e-10
-4.03309e-10
2.77299e-10
-4.19749e-10
3.13075e-10
-4.33488e-10
3.50397e-10
-4.44225e-10
3.89132e-10
-4.5156e-10
4.29161e-10
-4.54956e-10
4.70415e-10
-4.53707e-10
5.12952e-10
-4.46896e-10
5.57065e-10
-4.33374e-10
6.03429e-10
-4.11777e-10
6.53278e-10
-3.8061e-10
7.08538e-10
-3.38462e-10
-2.84359e-10
7.71861e-10
1.61984e-12
-4.33429e-11
6.97563e-12
-9.09563e-11
1.56012e-11
-1.31225e-10
2.71906e-11
-1.69623e-10
4.15376e-11
-2.06786e-10
5.84797e-11
-2.42492e-10
7.78776e-11
-2.76405e-10
9.96082e-11
-3.08318e-10
1.23561e-10
-3.38134e-10
1.49636e-10
-3.658e-10
1.77743e-10
-3.91263e-10
2.07794e-10
-4.14442e-10
2.39704e-10
-4.35219e-10
2.73385e-10
-4.53431e-10
3.0875e-10
-4.68853e-10
3.45715e-10
-4.8119e-10
3.84211e-10
-4.90056e-10
4.24211e-10
-4.94956e-10
4.65766e-10
-4.95262e-10
5.09074e-10
-4.90204e-10
5.54565e-10
-4.78865e-10
6.03011e-10
-4.60223e-10
6.5564e-10
-4.33239e-10
7.14207e-10
-3.97029e-10
-3.51125e-10
7.80973e-10
1.52367e-12
-4.48664e-11
6.68962e-12
-9.61222e-11
1.50779e-11
-1.39614e-10
2.63997e-11
-1.80945e-10
4.04548e-11
-2.20841e-10
5.70837e-11
-2.59121e-10
7.61484e-11
-2.9547e-10
9.75258e-11
-3.29696e-10
1.21105e-10
-3.61714e-10
1.46787e-10
-3.91483e-10
1.74482e-10
-4.18958e-10
2.04107e-10
-4.44067e-10
2.35586e-10
-4.66699e-10
2.6885e-10
-4.86695e-10
3.03841e-10
-5.03844e-10
3.40517e-10
-5.17866e-10
3.7887e-10
-5.2841e-10
4.18951e-10
-5.35036e-10
4.60903e-10
-5.37214e-10
5.05018e-10
-5.34319e-10
5.51802e-10
-5.25649e-10
6.0205e-10
-5.10471e-10
6.56915e-10
-4.88104e-10
7.17939e-10
-4.58053e-10
-4.20195e-10
7.87009e-10
1.42429e-12
-4.62906e-11
6.38753e-12
-1.01085e-10
1.45153e-11
-1.47741e-10
2.55365e-11
-1.91967e-10
3.92592e-11
-2.34564e-10
5.55281e-11
-2.7539e-10
7.42087e-11
-3.14152e-10
9.51807e-11
-3.50669e-10
1.18336e-10
-3.8487e-10
1.43579e-10
-4.16727e-10
1.70824e-10
-4.46204e-10
1.99998e-10
-4.73241e-10
2.31036e-10
-4.97738e-10
2.63891e-10
-5.19551e-10
2.98532e-10
-5.38485e-10
3.34958e-10
-5.54292e-10
3.73213e-10
-5.66664e-10
4.13405e-10
-5.75229e-10
4.55743e-10
-5.79553e-10
5.00574e-10
-5.79151e-10
5.48435e-10
-5.73509e-10
6.00095e-10
-5.62132e-10
6.566e-10
-5.44609e-10
7.19275e-10
-5.20727e-10
-4.90594e-10
7.89674e-10
1.32468e-12
-4.7615e-11
6.07828e-12
-1.05839e-10
1.39309e-11
-1.55594e-10
2.46299e-11
-2.02666e-10
3.79919e-11
-2.47926e-10
5.38678e-11
-2.91266e-10
7.21282e-11
-3.32413e-10
9.26576e-11
-3.71199e-10
1.15353e-10
-4.07566e-10
1.40124e-10
-4.41498e-10
1.66893e-10
-4.72973e-10
1.95596e-10
-5.01944e-10
2.26183e-10
-5.28326e-10
2.58627e-10
-5.51994e-10
2.92922e-10
-5.72781e-10
3.29101e-10
-5.90472e-10
3.67245e-10
-6.04808e-10
4.07506e-10
-6.1549e-10
4.50131e-10
-6.22177e-10
4.95492e-10
-6.24512e-10
5.44122e-10
-6.22139e-10
5.96738e-10
-6.14748e-10
6.54265e-10
-6.02137e-10
7.17825e-10
-5.84287e-10
-5.61455e-10
7.88686e-10
1.22691e-12
-4.88417e-11
5.76912e-12
-1.10381e-10
1.33392e-11
-1.63164e-10
2.37026e-11
-2.13029e-10
3.66857e-11
-2.6091e-10
5.21461e-11
-3.06727e-10
6.99611e-11
-3.50228e-10
9.00214e-11
-3.9126e-10
1.1223e-10
-4.29776e-10
1.36505e-10
-4.65773e-10
1.62774e-10
-4.99244e-10
1.90987e-10
-5.30157e-10
2.21106e-10
-5.58446e-10
2.53121e-10
-5.84009e-10
2.87048e-10
-6.06708e-10
3.22945e-10
-6.26368e-10
3.60918e-10
-6.42782e-10
4.01146e-10
-6.55718e-10
4.43892e-10
-6.64924e-10
4.8953e-10
-6.7015e-10
5.38565e-10
-6.71174e-10
5.91648e-10
-6.67831e-10
6.49582e-10
-6.6007e-10
7.13302e-10
-6.48007e-10
-6.31991e-10
7.83838e-10
1.13283e-12
-4.99743e-11
5.46537e-12
-1.14713e-10
1.27507e-11
-1.70449e-10
2.27719e-11
-2.2305e-10
3.5365e-11
-2.73503e-10
5.03955e-11
-3.21758e-10
6.77475e-11
-3.67581e-10
8.73191e-11
-4.10832e-10
1.09021e-10
-4.51478e-10
1.32776e-10
-4.89529e-10
1.58524e-10
-5.24993e-10
1.86222e-10
-5.57855e-10
2.15845e-10
-5.8807e-10
2.47397e-10
-6.15561e-10
2.80909e-10
-6.40221e-10
3.16454e-10
-6.61914e-10
3.54157e-10
-6.80485e-10
3.94204e-10
-6.95765e-10
4.3686e-10
-7.07579e-10
4.82483e-10
-7.15773e-10
5.31535e-10
-7.20226e-10
5.84591e-10
-7.20888e-10
6.42336e-10
-7.17815e-10
7.05542e-10
-7.11214e-10
-7.01486e-10
7.75037e-10
1.0434e-12
-5.10174e-11
5.17089e-12
-1.1884e-10
1.2173e-11
-1.77451e-10
2.18499e-11
-2.32727e-10
3.40474e-11
-2.85701e-10
4.86386e-11
-3.3635e-10
6.55153e-11
-3.84458e-10
8.45826e-11
-4.299e-10
1.05758e-10
-4.72654e-10
1.28973e-10
-5.12745e-10
1.54174e-10
-5.50195e-10
1.81326e-10
-5.85007e-10
2.10415e-10
-6.17159e-10
2.41453e-10
-6.46599e-10
2.74482e-10
-6.73249e-10
3.09583e-10
-6.97015e-10
3.46885e-10
-7.17788e-10
3.86574e-10
-7.35453e-10
4.28902e-10
-7.49908e-10
4.74198e-10
-7.61069e-10
5.22874e-10
-7.68902e-10
5.75426e-10
-7.7344e-10
6.32426e-10
-7.74815e-10
6.94504e-10
-7.73292e-10
-7.69295e-10
7.62313e-10
9.59507e-13
-5.19766e-11
4.88797e-12
-1.22768e-10
1.1611e-11
-1.84174e-10
2.09447e-11
-2.42061e-10
3.27442e-11
-2.975e-10
4.68904e-11
-3.50496e-10
6.32822e-11
-4.0085e-10
8.18318e-11
-4.4845e-10
1.02464e-10
-4.93287e-10
1.25116e-10
-5.35397e-10
1.49741e-10
-5.7482e-10
1.76311e-10
-6.11578e-10
2.04817e-10
-6.45666e-10
2.35277e-10
-6.77059e-10
2.67738e-10
-7.0571e-10
3.02282e-10
-7.3156e-10
3.39035e-10
-7.54541e-10
3.78172e-10
-7.74591e-10
4.19924e-10
-7.9166e-10
4.64583e-10
-8.05728e-10
5.12506e-10
-8.16824e-10
5.64108e-10
-8.25042e-10
6.19858e-10
-8.30566e-10
6.80258e-10
-8.33692e-10
-8.34851e-10
7.45815e-10
8.81283e-13
-5.28576e-11
4.61794e-12
-1.26505e-10
1.10674e-11
-1.90623e-10
2.00607e-11
-2.51054e-10
3.14621e-11
-3.08902e-10
4.51592e-11
-3.64194e-10
6.10582e-11
-4.1675e-10
7.90778e-11
-4.6647e-10
9.91483e-11
-5.13358e-10
1.21213e-10
-5.57463e-10
1.4523e-10
-5.98838e-10
1.71175e-10
-6.37523e-10
1.99043e-10
-6.73534e-10
2.28853e-10
-7.06869e-10
2.60651e-10
-7.37509e-10
2.94516e-10
-7.65425e-10
3.30564e-10
-7.90589e-10
3.68952e-10
-8.12978e-10
4.09883e-10
-8.3259e-10
4.53607e-10
-8.49453e-10
5.00424e-10
-8.63641e-10
5.50673e-10
-8.75291e-10
6.04727e-10
-8.8462e-10
6.62974e-10
-8.91939e-10
-8.97671e-10
7.25794e-10
8.08954e-13
-5.36662e-11
4.36105e-12
-1.30056e-10
1.05431e-11
-1.96805e-10
1.91999e-11
-2.59711e-10
3.02036e-11
-3.19906e-10
4.34489e-11
-3.7744e-10
5.88479e-11
-4.32149e-10
7.6325e-11
-4.83948e-10
9.58158e-11
-5.3285e-10
1.17268e-10
-5.78915e-10
1.40642e-10
-6.22213e-10
1.65916e-10
-6.62797e-10
1.93085e-10
-7.00704e-10
2.22167e-10
-7.35951e-10
2.53204e-10
-7.68545e-10
2.86265e-10
-7.98486e-10
3.21451e-10
-8.25775e-10
3.58898e-10
-8.50425e-10
3.98776e-10
-8.72469e-10
4.41293e-10
-8.9197e-10
4.86689e-10
-9.09037e-10
5.35232e-10
-9.23835e-10
5.87208e-10
-9.36595e-10
6.42903e-10
-9.47634e-10
-9.57354e-10
7.02586e-10
7.42144e-13
-5.44079e-11
4.11711e-12
-1.33431e-10
1.00379e-11
-2.02725e-10
1.83621e-11
-2.68035e-10
2.89694e-11
-3.30513e-10
4.17601e-11
-3.90231e-10
5.6652e-11
-4.47042e-10
7.35742e-11
-5.00871e-10
9.24664e-11
-5.51742e-10
1.13279e-10
-5.99728e-10
1.35974e-10
-6.44909e-10
1.60529e-10
-6.87353e-10
1.86939e-10
-7.27114e-10
2.15215e-10
-7.64228e-10
2.45392e-10
-7.98722e-10
2.77527e-10
-8.30621e-10
3.11702e-10
-8.59951e-10
3.4803e-10
-8.86752e-10
3.86645e-10
-9.11084e-10
4.27712e-10
-9.33037e-10
4.71414e-10
-9.5274e-10
5.17954e-10
-9.70374e-10
5.67536e-10
-9.86177e-10
6.20358e-10
-1.00046e-09
-1.01359e-09
6.76592e-10
6.8071e-13
-5.50882e-11
3.88531e-12
-1.36635e-10
9.55081e-12
-2.08391e-10
1.75463e-11
-2.76031e-10
2.7758e-11
-3.40725e-10
4.00917e-11
-4.02565e-10
5.44694e-11
-4.6142e-10
7.08245e-11
-5.17227e-10
8.90991e-11
-5.70018e-10
1.09245e-10
-6.19875e-10
1.31226e-10
-6.6689e-10
1.55016e-10
-7.11144e-10
1.80605e-10
-7.52704e-10
2.08e-10
-7.91623e-10
2.37223e-10
-8.27946e-10
2.68319e-10
-8.61717e-10
3.01349e-10
-8.92981e-10
3.36397e-10
-9.21801e-10
3.73566e-10
-9.48253e-10
4.12976e-10
-9.72447e-10
4.54759e-10
-9.94524e-10
4.99054e-10
-1.01467e-09
5.45995e-10
-1.03312e-09
5.95701e-10
-1.05016e-09
-1.06615e-09
6.48259e-10
6.24038e-13
-5.57118e-11
3.66475e-12
-1.39676e-10
9.08039e-12
-2.13806e-10
1.67506e-11
-2.83701e-10
2.65676e-11
-3.50542e-10
3.84416e-11
-4.14439e-10
5.22985e-11
-4.75277e-10
6.80743e-11
-5.33003e-10
8.57132e-11
-5.87657e-10
1.05168e-10
-6.3933e-10
1.26399e-10
-6.88122e-10
1.49379e-10
-7.34124e-10
1.74092e-10
-7.77417e-10
2.00535e-10
-8.18067e-10
2.28721e-10
-8.56132e-10
2.58676e-10
-8.91671e-10
2.90441e-10
-9.24747e-10
3.24074e-10
-9.55433e-10
3.59644e-10
-9.83823e-10
3.97229e-10
-1.01003e-09
4.36914e-10
-1.03421e-09
4.7878e-10
-1.05654e-09
5.229e-10
-1.07724e-09
5.69322e-10
-1.09658e-09
-1.11489e-09
6.1806e-10
5.71859e-13
-5.62832e-11
3.4543e-12
-1.42557e-10
8.625e-12
-2.18976e-10
1.59731e-11
-2.91049e-10
2.5396e-11
-3.59965e-10
3.6808e-11
-4.25852e-10
5.01377e-11
-4.88607e-10
6.53232e-11
-5.48189e-10
8.23097e-11
-6.04644e-10
1.01049e-10
-6.58069e-10
1.21499e-10
-7.08573e-10
1.43629e-10
-7.56255e-10
1.67415e-10
-8.01204e-10
1.92846e-10
-8.43498e-10
2.19921e-10
-8.83207e-10
2.48649e-10
-9.20399e-10
2.7905e-10
-9.55149e-10
3.11157e-10
-9.8754e-10
3.45005e-10
-1.01767e-09
3.80637e-10
-1.04566e-09
4.18091e-10
-1.07166e-09
4.57401e-10
-1.09585e-09
4.98581e-10
-1.11842e-09
5.41623e-10
-1.13963e-09
-1.15974e-09
5.86477e-10
5.23528e-13
-5.68063e-11
3.25303e-12
-1.45287e-10
8.18323e-12
-2.23906e-10
1.5212e-11
-2.98078e-10
2.42417e-11
-3.68995e-10
3.51896e-11
-4.368e-10
4.79866e-11
-5.01405e-10
6.25723e-11
-5.62775e-10
7.88916e-11
-6.20964e-10
9.68946e-11
-6.76073e-10
1.16537e-10
-7.28216e-10
1.37782e-10
-7.775e-10
1.60599e-10
-8.24022e-10
1.84966e-10
-8.67865e-10
2.10868e-10
-9.09109e-10
2.38299e-10
-9.47831e-10
2.6726e-10
-9.8411e-10
2.97755e-10
-1.01803e-09
3.29792e-10
-1.04971e-09
3.63379e-10
-1.07925e-09
3.98516e-10
-1.1068e-09
4.35192e-10
-1.13252e-09
4.73375e-10
-1.1566e-09
5.13004e-10
-1.17925e-09
-1.20072e-09
5.5398e-10
4.78807e-13
-5.72846e-11
3.05996e-12
-1.47867e-10
7.7538e-12
-2.286e-10
1.44662e-11
-3.0479e-10
2.31037e-11
-3.77632e-10
3.35863e-11
-4.47283e-10
4.58465e-11
-5.13666e-10
5.98246e-11
-5.76754e-10
7.54648e-11
-6.36605e-10
9.27152e-11
-6.93324e-10
1.11528e-10
-7.47029e-10
1.3186e-10
-7.97833e-10
1.53673e-10
-8.45835e-10
1.76935e-10
-8.91127e-10
2.01619e-10
-9.33793e-10
2.27701e-10
-9.73913e-10
2.55162e-10
-1.01157e-09
2.83986e-10
-1.04686e-09
3.14154e-10
-1.07988e-09
3.45642e-10
-1.11074e-09
3.78417e-10
-1.13958e-09
4.12429e-10
-1.16653e-09
4.47609e-10
-1.19178e-09
4.83853e-10
-1.2155e-09
-1.23788e-09
5.21021e-10
4.3714e-13
-5.77212e-11
2.87444e-12
-1.50304e-10
7.33593e-12
-2.33061e-10
1.37349e-11
-3.11189e-10
2.19819e-11
-3.85879e-10
3.1999e-11
-4.573e-10
4.37201e-11
-5.25387e-10
5.70853e-11
-5.9012e-10
7.20379e-11
-6.51558e-10
8.85235e-11
-7.0981e-10
1.0649e-10
-7.64996e-10
1.25889e-10
-8.17232e-10
1.46673e-10
-8.6662e-10
1.68801e-10
-9.13256e-10
1.92233e-10
-9.57225e-10
2.1693e-10
-9.98611e-10
2.42858e-10
-1.0375e-09
2.69976e-10
-1.07398e-09
2.98244e-10
-1.10814e-09
3.27612e-10
-1.14011e-09
3.58016e-10
-1.16998e-09
3.89379e-10
-1.1979e-09
4.21596e-10
-1.224e-09
4.54532e-10
-1.24844e-09
-1.27136e-09
4.88013e-10
3.98397e-13
-5.8119e-11
2.69589e-12
-1.52601e-10
6.92912e-12