/*--------------------------------*- C++ -*----------------------------------*\
  =========                 |
  \\      /  F ield         | OpenFOAM: The Open Source CFD Toolbox
   \\    /   O peration     | Website:  https://openfoam.org
    \\  /    A nd           | Version:  13
     \\/     M anipulation  |
\*---------------------------------------------------------------------------*/
FoamFile
{
    format      ascii;
    class       surfaceScalarField;
    location    "29";
    object      phi;
}
// * * * * * * * * * * * * * * * * * * * * * * * * * * * * * * * * * * * * * //

dimensions      [0 3 -1 0 0 0 0];

internalField   nonuniform List<scalar> 
12590
(
2.47375e-08
-3.38462e-08
3.30858e-08
-2.57663e-08
3.41013e-08
-8.62308e-09
3.14173e-08
-1.32167e-08
5.51578e-08
-2.99331e-08
8.83821e-08
-4.60911e-08
1.37069e-07
-5.37315e-08
1.82259e-07
-5.35777e-08
2.30292e-07
-5.04759e-08
2.71307e-07
-4.81848e-08
3.14443e-07
-4.46216e-08
3.51458e-07
-4.21188e-08
3.89491e-07
-3.91501e-08
4.22618e-07
-3.62695e-08
4.53239e-07
-3.17154e-08
4.75647e-07
-2.39888e-08
4.86043e-07
-1.16516e-08
4.79304e-07
5.71636e-09
4.53719e-07
2.39414e-08
4.08596e-07
4.33157e-08
3.44413e-07
6.2123e-08
2.62151e-07
7.83026e-08
1.68533e-07
8.99517e-08
7.1424e-08
8.83429e-08
6.87609e-08
-4.29577e-08
2.64462e-09
-1.03132e-07
2.82451e-08
-1.42229e-07
2.66345e-08
-1.50245e-07
-1.02224e-08
-1.22659e-07
-6.08273e-08
-7.13288e-08
-1.03113e-07
-2.12874e-11
-1.2819e-07
7.35835e-08
-1.34151e-07
1.40926e-07
-1.22977e-07
1.92776e-07
-1.05753e-07
2.41157e-07
-9.62744e-08
2.88778e-07
-9.38138e-08
3.39506e-07
-9.18876e-08
3.89171e-07
-8.8163e-08
4.33979e-07
-7.79879e-08
4.67415e-07
-5.88291e-08
4.84939e-07
-3.06719e-08
4.84124e-07
4.99954e-09
4.61783e-07
4.41684e-08
4.1886e-07
8.40391e-08
3.57122e-07
1.21167e-07
2.80009e-07
1.53227e-07
1.87809e-07
1.76156e-07
8.73871e-08
1.8328e-07
1.53466e-07
-9.53904e-08
9.38454e-08
-1.90865e-07
1.2022e-07
-2.50457e-07
8.37538e-08
-2.64936e-07
7.69739e-10
-2.39025e-07
-8.91839e-08
-1.90971e-07
-1.54644e-07
-1.31725e-07
-1.90081e-07
-7.1011e-08
-1.99521e-07
-2.48226e-09
-1.94599e-07
6.6067e-08
-1.80265e-07
1.33108e-07
-1.68076e-07
1.94502e-07
-1.59426e-07
2.56185e-07
-1.56457e-07
3.17421e-07
-1.51862e-07
3.7002e-07
-1.3231e-07
4.05425e-07
-9.59292e-08
4.17971e-07
-4.51766e-08
4.07841e-07
1.28306e-08
3.8177e-07
6.74631e-08
3.39385e-07
1.23239e-07
2.8198e-07
1.75781e-07
2.11548e-07
2.19175e-07
1.35186e-07
2.50799e-07
5.14306e-08
2.59317e-07
2.03469e-07
-1.16931e-07
2.06807e-07
-2.24887e-07
2.24524e-07
-2.93355e-07
1.49497e-07
-3.15365e-07
1.91297e-08
-3.01085e-07
-1.06209e-07
-2.65735e-07
-1.93448e-07
-2.20424e-07
-2.37551e-07
-1.77067e-07
-2.46531e-07
-1.27885e-07
-2.46739e-07
-7.16761e-08
-2.41439e-07
2.74855e-10
-2.43932e-07
7.69797e-08
-2.41422e-07
1.48721e-07
-2.32264e-07
2.12013e-07
-2.18194e-07
2.66086e-07
-1.88916e-07
3.0255e-07
-1.34817e-07
3.08663e-07
-5.37449e-08
2.84194e-07
3.38116e-08
2.51468e-07
9.66935e-08
2.10334e-07
1.61229e-07
1.60629e-07
2.21874e-07
1.0835e-07
2.70955e-07
4.86247e-08
3.02779e-07
4.86943e-09
3.00839e-07
2.06546e-07
-8.81136e-08
2.90201e-07
-1.86381e-07
3.18663e-07
-2.62286e-07
2.21639e-07
-2.98359e-07
5.06052e-08
-3.12179e-07
-9.58633e-08
-3.01621e-07
-2.07271e-07
-2.76914e-07
-2.64531e-07
-2.51657e-07
-2.74734e-07
-2.28357e-07
-2.72288e-07
-2.0144e-07
-2.72241e-07
-1.6495e-07
-2.83447e-07
-1.15403e-07
-2.95019e-07
-4.95724e-08
-3.01172e-07
2.03184e-08
-2.91484e-07
8.36132e-08
-2.55306e-07
1.23755e-07
-1.77523e-07
1.22238e-07
-5.59248e-08
8.68027e-08
6.42572e-08
5.61203e-08
1.23071e-07
3.19411e-08
1.8087e-07
1.00995e-08
2.41319e-07
-1.46494e-08
2.90406e-07
-3.26401e-08
3.22602e-07
-3.24905e-08
2.94994e-07
1.73564e-07
-2.41137e-08
3.09407e-07
-8.70762e-08
3.76942e-07
-1.63698e-07
2.93837e-07
-2.31215e-07
1.13253e-07
-2.71594e-07
-6.06271e-08
-2.97288e-07
-1.85303e-07
-3.03879e-07
-2.5962e-07
-3.11347e-07
-2.69247e-07
-3.25669e-07
-2.59838e-07
-3.36104e-07
-2.64137e-07
-3.38971e-07
-2.8264e-07
-3.30944e-07
-3.05426e-07
-3.07937e-07
-3.26029e-07
-2.70062e-07
-3.31022e-07
-2.16233e-07
-3.10637e-07
-1.57279e-07
-2.37789e-07
-1.21152e-07
-9.50944e-08
-1.16747e-07
5.60332e-08
-1.27474e-07
1.29956e-07
-1.28942e-07
1.79635e-07
-1.27005e-07
2.36894e-07
-1.18139e-07
2.82628e-07
-9.54533e-08
2.9363e-07
-4.05873e-08
2.40593e-07
1.32005e-07
3.42729e-08
2.70639e-07
2.4572e-08
3.82988e-07
-1.77699e-08
3.32417e-07
-1.09848e-07
1.99808e-07
-1.92799e-07
1.60293e-08
-2.5176e-07
-1.30315e-07
-3.14301e-07
-1.99251e-07
-3.75733e-07
-2.09156e-07
-4.3482e-07
-2.01583e-07
-4.86522e-07
-2.13893e-07
-5.2973e-07
-2.40651e-07
-5.61253e-07
-2.74912e-07
-5.77304e-07
-3.10888e-07
-5.71491e-07
-3.3742e-07
-5.4355e-07
-3.39143e-07
-4.85359e-07
-2.96524e-07
-3.97187e-07
-1.84561e-07
-3.20106e-07
-2.30474e-08
-2.93524e-07
1.00569e-07
-2.69394e-07
1.52788e-07
-2.26906e-07
1.93034e-07
-1.7187e-07
2.2366e-07
-9.57475e-08
2.20551e-07
-2.1743e-08
1.62461e-07
1.10067e-07
5.46294e-08
2.11416e-07
9.10642e-08
3.42541e-07
9.95782e-08
3.20906e-07
3.9301e-08
2.56156e-07
-8.86676e-08
1.39441e-07
-2.00378e-07
-2.36787e-08
-3.21802e-07
-7.99606e-08
-4.46683e-07
-8.55099e-08
-5.53809e-07
-9.55473e-08
-6.45279e-07
-1.23009e-07
-7.24035e-07
-1.62374e-07
-7.90552e-07
-2.08821e-07
-8.42604e-07
-2.59049e-07
-8.73428e-07
-3.0663e-07
-8.7532e-07
-3.37196e-07
-8.3599e-07
-3.36186e-07
-7.35584e-07
-2.85402e-07
-5.86708e-07
-1.73498e-07
-4.49957e-07
-3.8107e-08
-3.41482e-07
4.23072e-08
-2.24832e-07
7.39969e-08
-9.47762e-08
9.44192e-08
-8.90363e-09
1.27491e-07
3.2862e-08
1.20865e-07
1.4283e-07
3.97711e-08
1.66041e-07
9.59797e-08
2.82197e-07
1.18016e-07
2.95339e-07
7.47847e-08
2.9543e-07
-3.5019e-08
2.45897e-07
-2.09875e-07
1.47445e-07
-3.90427e-07
9.81564e-08
-5.50969e-07
7.3627e-08
-6.83852e-07
3.68176e-08
-7.98317e-07
-9.23174e-09
-8.99651e-07
-6.14692e-08
-9.90421e-07
-1.17969e-07
-1.0692e-06
-1.80152e-07
-1.13067e-06
-2.44807e-07
-1.16401e-06
-3.0356e-07
-1.15526e-06
-3.44904e-07
-1.07997e-06
-3.60867e-07
-9.1662e-07
-3.37823e-07
-6.75445e-07
-2.80304e-07
-4.19241e-07
-2.16173e-07
-1.64605e-07
-1.82127e-07
5.26567e-08
-1.29177e-07
1.16046e-07
6.41261e-08
7.19986e-08
1.63501e-07
2.13459e-07
3.68645e-08
1.22073e-07
8.60217e-08
2.2658e-07
8.51114e-08
2.9214e-07
1.1078e-08
3.65652e-07
-1.26758e-07
3.80942e-07
-3.26645e-07
3.44996e-07
-5.15417e-07
2.8584e-07
-6.70608e-07
2.2757e-07
-8.06505e-07
1.7171e-07
-9.27904e-07
1.11649e-07
-1.03914e-06
4.95447e-08
-1.14275e-06
-1.42827e-08
-1.23539e-06
-8.7219e-08
-1.31141e-06
-1.68283e-07
-1.36422e-06
-2.50356e-07
-1.38137e-06
-3.27563e-07
-1.3479e-06
-3.94486e-07
-1.24049e-06
-4.45748e-07
-1.04284e-06
-4.79023e-07
-7.66788e-07
-4.93149e-07
-4.62059e-07
-4.89243e-07
-1.69558e-07
-4.22722e-07
6.19064e-08
-1.70927e-07
3.96657e-08
1.80117e-07
2.51943e-07
1.56262e-08
9.73811e-08
1.97976e-08
2.15794e-07
-3.07534e-08
3.38575e-07
-1.39399e-07
4.71629e-07
-3.0046e-07
5.40486e-07
-4.75445e-07
5.18728e-07
-6.31407e-07
4.40637e-07
-7.73001e-07
3.68128e-07
-9.07838e-07
3.06008e-07
-1.03264e-06
2.3578e-07
-1.14773e-06
1.64293e-07
-1.25381e-06
9.19473e-08
-1.34865e-06
7.88466e-09
-1.42559e-06
-9.09257e-08
-1.4785e-06
-1.97122e-07
-1.50042e-06
-3.05574e-07
-1.48148e-06
-4.13532e-07
-1.40931e-06
-5.18634e-07
-1.27085e-06
-6.18068e-07
-1.05878e-06
-7.0703e-07
-7.80711e-07
-7.67724e-07
-4.60739e-07
-7.45557e-07
-1.3399e-07
-5.0181e-07
1.25869e-08
3.11328e-08
2.6124e-07
-2.93761e-08
1.17452e-07
-5.99895e-08
2.4048e-07
-1.58657e-07
4.34688e-07
-3.0143e-07
6.12723e-07
-4.56803e-07
6.94772e-07
-5.95309e-07
6.56227e-07
-7.21991e-07
5.66689e-07
-8.54622e-07
4.99946e-07
-9.89248e-07
4.39883e-07
-1.11789e-06
3.63932e-07
-1.23881e-06
2.84954e-07
-1.34715e-06
2.0022e-07
-1.43961e-06
1.00356e-07
-1.51288e-06
-1.75531e-08
-1.55926e-06
-1.50795e-07
-1.57377e-06
-2.9124e-07
-1.55169e-06
-4.36091e-07
-1.48779e-06
-5.82998e-07
-1.37728e-06
-7.30157e-07
-1.21338e-06
-8.71351e-07
-9.92076e-07
-9.91996e-07
-6.99479e-07
-1.03945e-06
-3.32208e-07
-8.70012e-07
-4.12358e-08
-2.65536e-07
2.11078e-07
-6.24525e-08
1.70675e-07
-1.47757e-07
3.22155e-07
-2.83901e-07
5.68764e-07
-4.32171e-07
7.59711e-07
-5.59792e-07
8.2163e-07
-6.66576e-07
7.62298e-07
-7.82167e-07
6.81559e-07
-9.15874e-07
6.32914e-07
-1.05294e-06
5.76474e-07
-1.18806e-06
4.98525e-07
-1.3177e-06
4.14157e-07
-1.43214e-06
3.14398e-07
-1.52403e-06
1.9186e-07
-1.59167e-06
4.96715e-08
-1.62978e-06
-1.13231e-07
-1.63397e-06
-2.87731e-07
-1.60117e-06
-4.69363e-07
-1.5314e-06
-6.54071e-07
-1.42387e-06
-8.38253e-07
-1.27962e-06
-1.01819e-06
-1.09143e-06
-1.18082e-06
-8.40488e-07
-1.29182e-06
-4.82611e-07
-1.22958e-06
-6.49186e-08
-6.95028e-07
1.43055e-07
-8.44955e-08
2.47915e-07
-2.22422e-07
4.56357e-07
-3.70047e-07
7.14877e-07
-4.98822e-07
8.87458e-07
-5.98291e-07
9.20387e-07
-6.93472e-07
8.56835e-07
-8.15559e-07
8.03018e-07
-9.56829e-07
7.73666e-07
-1.10015e-06
7.19185e-07
-1.24399e-06
6.41958e-07
-1.38129e-06
5.51091e-07
-1.49964e-06
4.32296e-07
-1.59102e-06
2.8269e-07
-1.65051e-06
1.08317e-07
-1.67603e-06
-8.85492e-08
-1.66551e-06
-2.99167e-07
-1.62052e-06
-5.15136e-07
-1.54202e-06
-7.33423e-07
-1.42984e-06
-9.52059e-07
-1.28529e-06
-1.164e-06
-1.10982e-06
-1.35815e-06
-8.89929e-07
-1.51147e-06
-5.84276e-07
-1.53947e-06
-1.37299e-07
-1.14178e-06
-8.40724e-10
-1.13002e-07
3.56272e-07
-2.61739e-07
6.03219e-07
-3.91422e-07
8.434e-07
-4.94906e-07
9.90113e-07
-5.82576e-07
1.0076e-06
-6.89567e-07
9.62974e-07
-8.28764e-07
9.41917e-07
-9.78942e-07
9.23081e-07
-1.12926e-06
8.69326e-07
-1.28079e-06
7.93334e-07
-1.42179e-06
6.91723e-07
-1.53893e-06
5.49481e-07
-1.62406e-06
3.66992e-07
-1.66872e-06
1.52564e-07
-1.67377e-06
-8.48108e-08
-1.64506e-06
-3.28153e-07
-1.58796e-06
-5.73479e-07
-1.4999e-06
-8.22365e-07
-1.38227e-06
-1.07107e-06
-1.23781e-06
-1.31082e-06
-1.06561e-06
-1.5301e-06
-8.6777e-07
-1.71143e-06
-6.12684e-07
-1.78923e-06
-2.47218e-07
-1.51569e-06
-2.42592e-07
-1.23071e-07
4.71673e-07
-2.46965e-07
7.23435e-07
-3.47055e-07
9.41367e-07
-4.38247e-07
1.0801e-06
-5.3917e-07
1.10694e-06
-6.72155e-07
1.09522e-06
-8.27142e-07
1.09617e-06
-9.81763e-07
1.07676e-06
-1.13605e-06
1.02384e-06
-1.28839e-06
9.44937e-07
-1.42301e-06
8.26744e-07
-1.52852e-06
6.54572e-07
-1.59236e-06
4.30681e-07
-1.6051e-06
1.64503e-07
-1.57556e-06
-1.14654e-07
-1.52158e-06
-3.82929e-07
-1.4491e-06
-6.47108e-07
-1.35956e-06
-9.12356e-07
-1.25175e-06
-1.18145e-06
-1.11921e-06
-1.4446e-06
-9.62648e-07
-1.68757e-06
-7.8084e-07
-1.89146e-06
-5.74524e-07
-2.00105e-06
-2.80442e-07
-1.80054e-06
-5.19103e-07
-9.73724e-08
5.61925e-07
-1.78176e-07
7.97056e-07
-2.60459e-07
1.01921e-06
-3.65522e-07
1.18114e-06
-4.9735e-07
1.23675e-06
-6.53314e-07
1.24938e-06
-8.11661e-07
1.25151e-06
-9.62096e-07
1.22723e-06
-1.11304e-06
1.17225e-06
-1.25246e-06
1.0848e-06
-1.36649e-06
9.4004e-07
-1.43795e-06
7.25896e-07
-1.44973e-06
4.42457e-07
-1.3976e-06
1.1104e-07
-1.31341e-06
-1.9839e-07
-1.22945e-06
-4.6975e-07
-1.15408e-06
-7.20839e-07
-1.08871e-06
-9.81119e-07
-1.01528e-06
-1.25628e-06
-9.19906e-07
-1.53962e-06
-8.00755e-07
-1.81304e-06
-6.49922e-07
-2.0409e-06
-4.79617e-07
-2.16759e-06
-2.70876e-07
-2.00342e-06
-7.88735e-07
-4.21387e-08
5.80442e-07
-8.16138e-08
8.24404e-07
-1.76848e-07
1.10716e-06
-3.13731e-07
1.31436e-06
-4.70948e-07
1.38963e-06
-6.28082e-07
1.40222e-06
-7.7114e-07
1.39317e-06
-9.09728e-07
1.36144e-06
-1.0401e-06
1.30238e-06
-1.15002e-06
1.19304e-06
-1.21929e-06
1.00909e-06
-1.22644e-06
7.33369e-07
-1.15178e-06
3.6624e-07
-1.00691e-06
-3.18372e-08
-8.74323e-07
-3.3539e-07
-7.72348e-07
-5.67911e-07
-7.18602e-07
-7.80172e-07
-6.9576e-07
-1.00324e-06
-6.82746e-07
-1.2697e-06
-6.60722e-07
-1.57149e-06
-5.98928e-07
-1.86941e-06
-5.06892e-07
-2.14221e-06
-3.78949e-07
-2.28943e-06
-2.39072e-07
-2.14526e-06
-1.02291e-06
3.07686e-08
5.39135e-07
-4.10844e-09
8.50664e-07
-1.34721e-07
1.23318e-06
-2.94509e-07
1.46855e-06
-4.46912e-07
1.53913e-06
-5.7937e-07
1.53099e-06
-6.97875e-07
1.50716e-06
-8.08511e-07
1.47006e-06
-9.03593e-07
1.39509e-06
-9.63076e-07
1.25171e-06
-9.68536e-07
1.01424e-06
-8.9639e-07
6.61519e-07
-7.24789e-07
1.95951e-07
-5.44377e-07
-2.15245e-07
-4.08316e-07
-4.67714e-07
-3.15547e-07
-6.65982e-07
-2.67097e-07
-8.26467e-07
-2.72201e-07
-1.00108e-06
-3.17811e-07
-1.23216e-06
-3.68331e-07
-1.51923e-06
-4.07606e-07
-1.8449e-06
-3.92136e-07
-2.15265e-06
-3.31416e-07
-2.35921e-06
-2.33781e-07
-2.23467e-06
-1.25111e-06
7.50845e-08
4.37915e-07
1.31967e-08
9.05424e-07
-1.33817e-07
1.37554e-06
-2.77963e-07
1.61097e-06
-3.99512e-07
1.65575e-06
-4.93293e-07
1.62129e-06
-5.74398e-07
1.58519e-06
-6.43226e-07
1.53609e-06
-6.85953e-07
1.43586e-06
-6.86009e-07
1.2506e-06
-6.30174e-07
9.59225e-07
-5.08138e-07
5.38047e-07
-3.01455e-07
-1.02519e-08
-1.99003e-07
-3.15668e-07
-1.18504e-07
-5.50368e-07
-4.47946e-08
-7.38554e-07
1.01481e-08
-8.84534e-07
2.99046e-08
-1.02531e-06
-7.0472e-09
-1.19796e-06
-1.06582e-07
-1.43e-06
-2.30859e-07
-1.72086e-06
-3.55415e-07
-2.03758e-06
-4.48168e-07
-2.26148e-06
-4.75707e-07
-2.19891e-06
-1.72424e-06
1.02871e-07
3.34745e-07
4.37375e-08
9.61098e-07
-5.11255e-08
1.46814e-06
-1.26494e-07
1.68191e-06
-1.73755e-07
1.70176e-06
-2.033e-07
1.64707e-06
-2.20687e-07
1.59932e-06
-2.26347e-07
1.53877e-06
-2.14263e-07
1.42161e-06
-1.80145e-07
1.2153e-06
-1.27665e-07
9.03582e-07
-6.76184e-08
4.80497e-07
-5.06597e-08
-2.97947e-08
-6.10048e-08
-3.06504e-07
-6.59176e-08
-5.46058e-07
-7.28137e-08
-7.33306e-07
-7.75175e-08
-8.81595e-07
-8.99986e-08
-1.0152e-06
-1.5311e-07
-1.13847e-06
-3.27287e-07
-1.2585e-06
-6.33969e-07
-1.41871e-06
-1.00879e-06
-1.66167e-06
-1.38124e-06
-1.88514e-06
-1.66921e-06
-1.90846e-06
-1.4122e-06
-1.97146e-06
9.55616e-08
2.14182e-07
4.84837e-08
1.00365e-06
-8.80279e-09
1.52219e-06
-3.87303e-08
1.71196e-06
-4.75879e-08
1.70536e-06
-3.89794e-08
1.63598e-06
-1.49854e-08
1.57185e-06
2.56326e-08
1.49515e-06
8.2101e-08
1.3621e-06
1.48281e-07
1.14639e-06
2.15601e-07
8.37516e-07
2.57702e-07
4.33462e-07
2.35584e-07
-9.7424e-09
2.2225e-07
-2.94798e-07
2.06463e-07
-5.31996e-07
1.80195e-07
-7.08755e-07
1.47231e-07
-8.50324e-07
1.20507e-07
-9.90009e-07
1.05754e-07
-1.12529e-06
6.46888e-08
-1.22e-06
-9.48234e-08
-1.25882e-06
-4.08168e-07
-1.34761e-06
-7.69318e-07
-1.5225e-06
-1.03753e-06
-1.62908e-06
-1.44325e-06
-1.00566e-06
8.79144e-08
1.3197e-07
8.50615e-08
1.00488e-06
7.50946e-08
1.5316e-06
7.88954e-08
1.70314e-06
1.00892e-07
1.68329e-06
1.39144e-07
1.59371e-06
1.97016e-07
1.51014e-06
2.7192e-07
1.41683e-06
3.58134e-07
1.27337e-06
4.46815e-07
1.05644e-06
5.21805e-07
7.58377e-07
5.62875e-07
3.92257e-07
5.48196e-07
1.67564e-09
5.34788e-07
-2.83584e-07
5.1444e-07
-5.13531e-07
4.84081e-07
-6.80206e-07
4.4649e-07
-8.14066e-07
4.04772e-07
-9.49033e-07
3.6776e-07
-1.08893e-06
3.43949e-07
-1.1961e-06
3.09895e-07
-1.22577e-06
1.69468e-07
-1.20529e-06
-1.02329e-07
-1.2421e-06
-3.5737e-07
-1.3752e-06
-1.45649e-06
-3.40296e-07
8.5773e-08
2.74594e-08
1.54653e-07
9.33717e-07
1.89274e-07
1.49441e-06
2.22577e-07
1.67056e-06
2.60733e-07
1.64008e-06
3.18098e-07
1.53305e-06
4.00692e-07
1.42427e-06
5.03486e-07
1.3106e-06
6.15845e-07
1.1581e-06
7.24292e-07
9.45135e-07
8.14068e-07
6.68365e-07
8.61856e-07
3.41081e-07
8.62699e-07
-1.73103e-09
8.48514e-07
-2.71361e-07
8.19739e-07
-4.86468e-07
7.8633e-07
-6.48329e-07
7.57038e-07
-7.85827e-07
7.27948e-07
-9.20382e-07
6.9221e-07
-1.0533e-06
6.50546e-07
-1.15474e-06
6.18403e-07
-1.1923e-06
5.67797e-07
-1.15219e-06
4.35806e-07
-1.11032e-06
2.66589e-07
-1.19918e-06
-1.41647e-06
2.23994e-07
8.42987e-08
-4.69026e-08
2.41124e-07
7.77172e-07
3.22549e-07
1.41247e-06
3.77766e-07
1.61084e-06
4.26109e-07
1.59185e-06
4.87185e-07
1.46812e-06
5.79495e-07
1.32809e-06
6.99556e-07
1.18663e-06
8.32645e-07
1.02229e-06
9.61053e-07
8.14886e-07
1.0659e-06
5.60845e-07
1.13145e-06
2.73525e-07
1.14889e-06
-2.11645e-08
1.13907e-06
-2.63233e-07
1.11222e-06
-4.61124e-07
1.08567e-06
-6.23105e-07
1.06806e-06
-7.69126e-07
1.05177e-06
-9.0453e-07
1.02534e-06
-1.027e-06
9.88336e-07
-1.11727e-06
9.49995e-07
-1.15393e-06
9.13964e-07
-1.11533e-06
8.46309e-07
-1.03857e-06
7.33935e-07
-1.08918e-06
-1.35601e-06
6.73458e-07
7.52227e-08
-1.22834e-07
3.25718e-07
5.25558e-07
4.62313e-07
1.27401e-06
5.43519e-07
1.53187e-06
5.96243e-07
1.53347e-06
6.53431e-07
1.40868e-06
7.37162e-07
1.24003e-06
8.55253e-07
1.06507e-06
9.94175e-07
8.80031e-07
1.134e-06
6.72857e-07
1.25372e-06
4.39127e-07
1.33794e-06
1.88147e-07
1.37636e-06
-6.16902e-08
1.38815e-06
-2.76522e-07
1.38718e-06
-4.61463e-07
1.38694e-06
-6.24e-07
1.38833e-06
-7.7131e-07
1.38221e-06
-8.98785e-07
1.3591e-06
-1.00395e-06
1.32299e-06
-1.08134e-06
1.28483e-06
-1.1152e-06
1.25355e-06
-1.08317e-06
1.21439e-06
-1.00043e-06
1.13676e-06
-1.00984e-06
-1.28767e-06
1.06645e-06
8.31792e-08
-1.97846e-07
3.87718e-07
2.23223e-07
5.95158e-07
1.0678e-06
7.02257e-07
1.41946e-06
7.73474e-07
1.46319e-06
8.3227e-07
1.3457e-06
9.06264e-07
1.16181e-06
1.00912e-06
9.58129e-07
1.13779e-06
7.48181e-07
1.27634e-06
5.31737e-07
1.40607e-06
3.08647e-07
1.5093e-06
8.21354e-08
1.5813e-06
-1.34499e-07
1.63304e-06
-3.29101e-07
1.67198e-06
-5.01248e-07
1.70149e-06
-6.54343e-07
1.71742e-06
-7.87884e-07
1.71467e-06
-8.96425e-07
1.68934e-06
-9.78842e-07
1.64898e-06
-1.04088e-06
1.60681e-06
-1.07318e-06
1.57161e-06
-1.04799e-06
1.54189e-06
-9.69674e-07
1.48386e-06
-9.53298e-07
-1.21772e-06
1.41305e-06
9.28814e-08
-2.85091e-07
3.77875e-07
-6.07757e-08
6.67714e-07
7.76095e-07
8.30365e-07
1.25934e-06
9.29743e-07
1.35932e-06
1.01122e-06
1.26085e-06
1.0966e-06
1.07281e-06
1.19987e-06
8.50694e-07
1.32554e-06
6.1951e-07
1.46613e-06
3.89647e-07
1.60622e-06
1.65726e-07
1.73519e-06
-4.5699e-08
1.8416e-06
-2.41964e-07
1.92679e-06
-4.14922e-07
1.99034e-06
-5.6543e-07
2.03089e-06
-6.95533e-07
2.04616e-06
-8.03691e-07
2.03648e-06
-8.87075e-07
2.00411e-06
-9.46621e-07
1.95649e-06
-9.93436e-07
1.90664e-06
-1.02326e-06
1.86428e-06
-1.00559e-06
1.82932e-06
-9.35261e-07
1.78234e-06
-9.06594e-07
-1.15027e-06
1.71391e-06
6.98789e-08
-3.4819e-07
2.57306e-07
-2.41837e-07
6.23217e-07
4.13205e-07
8.66065e-07
1.01309e-06
1.02157e-06
1.20436e-06
1.14393e-06
1.13585e-06
1.26283e-06
9.50784e-07
1.39278e-06
7.17937e-07
1.54011e-06
4.70251e-07
1.70064e-06
2.27505e-07
1.86532e-06
3.27383e-09
2.0159e-06
-1.98907e-07
2.14379e-06
-3.69388e-07
2.2416e-06
-5.12871e-07
2.30857e-06
-6.32743e-07
2.34467e-06
-7.32057e-07
2.35059e-06
-8.10003e-07
2.32987e-06
-8.66652e-07
2.28855e-06
-9.05512e-07
2.23376e-06
-9.38707e-07
2.17519e-06
-9.64857e-07
2.12279e-06
-9.53264e-07
2.07867e-06
-8.91511e-07
2.03269e-06
-8.60975e-07
-1.08573e-06
1.96704e-06
3.78923e-08
-3.77466e-07
1.04038e-07
-3.01126e-07
4.36309e-07
8.18503e-08
7.56159e-07
6.97463e-07
9.85245e-07
9.72677e-07
1.16909e-06
9.51471e-07
1.3365e-06
7.81917e-07
1.50693e-06
5.4641e-07
1.69171e-06
2.85053e-07
1.89002e-06
3.05199e-08
2.08427e-06
-1.93758e-07
2.2601e-06
-3.71438e-07
2.40071e-06
-5.10582e-07
2.50437e-06
-6.16668e-07
2.57197e-06
-7.00493e-07
2.60332e-06
-7.63648e-07
2.60044e-06
-8.07394e-07
2.57077e-06
-8.37187e-07
2.52252e-06
-8.57383e-07
2.4623e-06
-8.78628e-07
2.39725e-06
-8.99862e-07
2.33552e-06
-8.91803e-07
2.2811e-06
-8.36922e-07
2.22677e-06
-8.07853e-07
-1.02707e-06
2.16781e-06
-4.22309e-09
-3.64903e-07
-2.43328e-08
-2.7324e-07
1.24536e-07
-5.29536e-08
4.46251e-07
3.73686e-07
7.49952e-07
6.71941e-07
1.00962e-06
6.91845e-07
1.23735e-06
5.53418e-07
1.4511e-06
3.32975e-07
1.67787e-06
5.87729e-08
1.91492e-06
-2.06765e-07
2.14482e-06
-4.1888e-07
2.34339e-06
-5.72412e-07
2.50272e-06
-6.68678e-07
2.61618e-06
-7.29631e-07
2.68495e-06
-7.69108e-07
2.71503e-06
-7.9376e-07
2.71741e-06
-8.09884e-07
2.69755e-06
-8.17464e-07
2.65794e-06
-8.17902e-07
2.60307e-06
-8.23813e-07
2.5397e-06
-8.36554e-07
2.47606e-06
-8.28003e-07
2.4134e-06
-7.75132e-07
2.3495e-06
-7.43465e-07
-9.85311e-07
2.30674e-06
-5.51018e-08
-3.00871e-07
-1.15602e-07
-2.00967e-07
-1.69121e-07
6.00912e-09
-1.6716e-08
2.30073e-07
2.62816e-07
3.90928e-07
5.66197e-07
3.87311e-07
8.17801e-07
3.03831e-07
1.00605e-06
1.46816e-07
1.22477e-06
-1.56915e-07
1.48314e-06
-4.60601e-07
1.75088e-06
-6.88331e-07
2.00795e-06
-8.24464e-07
2.23219e-06
-8.92219e-07
2.41159e-06
-9.08388e-07
2.53695e-06
-8.94096e-07
2.61407e-06
-8.70711e-07
2.65154e-06
-8.47325e-07
2.65752e-06
-8.23453e-07
2.64086e-06
-8.01258e-07
2.6057e-06
-7.88664e-07
2.55927e-06
-7.90087e-07
2.50599e-06
-7.74937e-07
2.44549e-06
-7.13888e-07
2.38139e-06
-6.80585e-07
-9.79828e-07
2.37606e-06
-1.01144e-07
-1.87976e-07
-2.65852e-07
-2.74657e-08
-3.8737e-07
1.35878e-07
-4.04001e-07
2.43304e-07
-3.32693e-07
3.23452e-07
-2.60442e-07
3.16865e-07
-1.94551e-07
2.44616e-07
-7.72585e-09
-2.953e-08
3.09986e-07
-4.67155e-07
6.37902e-07
-7.8501e-07
9.56317e-07
-9.97979e-07
1.25455e-06
-1.12293e-06
1.5328e-06
-1.16783e-06
1.77982e-06
-1.15388e-06
1.98891e-06
-1.10226e-06
2.15455e-06
-1.03579e-06
2.27498e-06
-9.67389e-07
2.35415e-06
-9.02426e-07
2.3987e-06
-8.45708e-07
2.41798e-06
-8.07877e-07
2.416e-06
-7.87964e-07
2.39033e-06
-7.48827e-07
2.3496e-06
-6.7386e-07
2.31826e-06
-6.48314e-07
-1.04248e-06
2.3803e-06
-2.34503e-07
5.75211e-08
-4.68589e-07
2.12879e-07
-6.17818e-07
2.85899e-07
-6.87798e-07
3.21571e-07
-6.77057e-07
3.09784e-07
-5.91601e-07
2.38195e-07
-3.88187e-07
5.14319e-08
-1.10124e-07
-2.94638e-07
1.38406e-07
-7.05656e-07
3.68865e-07
-1.00604e-06
5.70011e-07
-1.19823e-06
7.64749e-07
-1.3104e-06
9.61538e-07
-1.36198e-06
1.16592e-06
-1.35623e-06
1.37125e-06
-1.3062e-06
1.56518e-06
-1.22875e-06
1.73582e-06
-1.13738e-06
1.87676e-06
-1.04295e-06
1.98727e-06
-9.55981e-07
2.07232e-06
-8.9272e-07
2.12407e-06
-8.39488e-07
2.13368e-06
-7.58334e-07
2.12406e-06
-6.63173e-07
2.18775e-06
-7.12802e-07
-1.20848e-06
2.35417e-06
-2.90515e-07
3.55974e-07
-5.07624e-07
4.34806e-07
-6.55195e-07
4.40702e-07
-7.43046e-07
4.05659e-07
-7.32194e-07
3.09774e-07
-6.24977e-07
1.40051e-07
-3.9979e-07
-1.609e-07
-1.39941e-07
-5.41832e-07
8.60125e-08
-9.21182e-07
2.77389e-07
-1.1914e-06
4.30698e-07
-1.34124e-06
5.53077e-07
-1.43058e-06
6.69002e-07
-1.47367e-06
7.93329e-07
-1.47773e-06
9.34026e-07
-1.44495e-06
1.0884e-06
-1.38173e-06
1.24774e-06
-1.29572e-06
1.40367e-06
-1.19824e-06
1.5525e-06
-1.1044e-06
1.67975e-06
-1.0197e-06
1.76134e-06
-9.20626e-07
1.79314e-06
-7.89437e-07
1.85047e-06
-7.20835e-07
2.0871e-06
-9.48374e-07
-1.47865e-06
2.35694e-06
-2.68141e-07
6.31017e-07
-4.5921e-07
6.31582e-07
-5.98571e-07
5.80928e-07
-6.76642e-07
4.95773e-07
-6.84767e-07
3.242e-07
-5.92211e-07
6.22337e-08
-4.1088e-07
-3.283e-07
-1.92715e-07
-7.47434e-07
2.39627e-08
-1.12702e-06
2.22793e-07
-1.3802e-06
3.81431e-07
-1.49685e-06
5.04909e-07
-1.54643e-06
6.00135e-07
-1.56501e-06
6.84315e-07
-1.55882e-06
7.71365e-07
-1.52969e-06
8.69791e-07
-1.47839e-06
9.83125e-07
-1.40775e-06
1.11125e-06
-1.32548e-06
1.24431e-06
-1.23688e-06
1.35501e-06
-1.12985e-06
1.4218e-06
-9.86852e-07
1.50657e-06
-8.73748e-07
1.74363e-06
-9.56689e-07
2.12799e-06
-1.33329e-06
-1.77193e-06
2.42179e-06
-2.12175e-07
8.48725e-07
-3.74565e-07
7.98713e-07
-5.01846e-07
7.178e-07
-5.8914e-07
5.87915e-07
-6.13091e-07
3.61409e-07
-5.54123e-07
2.18043e-08
-4.22302e-07
-4.45589e-07
-2.35625e-07
-9.21402e-07
-2.86356e-08
-1.32351e-06
1.71416e-07
-1.57343e-06
3.49309e-07
-1.66553e-06
4.94195e-07
-1.68783e-06
6.09609e-07
-1.67591e-06
7.01076e-07
-1.647e-06
7.79231e-07
-1.60537e-06
8.54754e-07
-1.552e-06
9.36597e-07
-1.48814e-06
1.02635e-06
-1.4142e-06
1.1128e-06
-1.32259e-06
1.18607e-06
-1.2025e-06
1.2896e-06
-1.08961e-06
1.52745e-06
-1.11073e-06
1.92246e-06
-1.35189e-06
2.29075e-06
-1.70054e-06
-1.9819e-06
2.5005e-06
-1.51805e-07
1.00791e-06
-2.88812e-07
9.43703e-07
-4.06528e-07
8.4084e-07
-4.91895e-07
6.81823e-07
-5.28681e-07
4.2011e-07
-5.09815e-07
2.05317e-08
-4.18627e-07
-5.21826e-07
-2.58026e-07
-1.06992e-06
-6.15542e-08
-1.50985e-06
1.34734e-07
-1.76071e-06
3.14281e-07
-1.841e-06
4.74719e-07
-1.84188e-06
6.10756e-07
-1.80789e-06
7.24399e-07
-1.75748e-06
8.20084e-07
-1.69864e-06
9.04334e-07
-1.63436e-06
9.82957e-07
-1.56532e-06
1.05848e-06
-1.48865e-06
1.13577e-06
-1.39907e-06
1.24944e-06
-1.31541e-06
1.47713e-06
-1.31663e-06
1.82996e-06
-1.46314e-06
2.18305e-06
-1.70394e-06
2.40737e-06
-1.92527e-06
-2.07902e-06
2.50505e-06
-1.01866e-07
1.11543e-06
-2.11173e-07
1.05832e-06
-3.06493e-07
9.42994e-07
-3.74398e-07
7.67202e-07
-4.2616e-07
4.82987e-07
-4.29149e-07
5.20534e-08
-3.77758e-07
-5.57988e-07
-2.41449e-07
-1.195e-06
-5.6716e-08
-1.68565e-06
1.29836e-07
-1.94104e-06
3.05075e-07
-2.00927e-06
4.65183e-07
-1.99786e-06
6.09485e-07
-1.94831e-06
7.37728e-07
-1.8827e-06
8.52152e-07
-1.81072e-06
9.56152e-07
-1.7365e-06
1.05455e-06
-1.66223e-06
1.158e-06
-1.59095e-06
1.29237e-06
-1.53253e-06
1.50244e-06
-1.52473e-06
1.79166e-06
-1.60514e-06
2.08091e-06
-1.75165e-06
2.27782e-06
-1.90092e-06
2.3741e-06
-2.02055e-06
-2.12179e-06
2.41683e-06
-5.87878e-08
1.18117e-06
-1.3557e-07
1.14236e-06
-1.9926e-07
1.01527e-06
-2.5015e-07
8.22378e-07
-2.88538e-07
5.57058e-07
-2.82715e-07
6.21402e-08
-2.79859e-07
-5.4966e-07
-1.74031e-07
-1.29205e-06
-8.15783e-09
-1.84445e-06
1.68352e-07
-2.11143e-06
3.3499e-07
-2.17183e-06
4.89832e-07
-2.14857e-06
6.32607e-07
-2.08744e-06
7.64813e-07
-2.0121e-06
8.89958e-07
-1.93366e-06
1.01291e-06
-1.85764e-06
1.14163e-06
-1.7895e-06
1.29072e-06
-1.73889e-06
1.48134e-06
-1.72225e-06
1.71122e-06
-1.75384e-06
1.93287e-06
-1.82616e-06
2.09241e-06
-1.91075e-06
2.18509e-06
-1.99263e-06
2.24292e-06
-2.07853e-06
-2.17151e-06
2.29324e-06
-1.79963e-08
1.20284e-06
-6.23706e-08
1.18961e-06
-9.27432e-08
1.05047e-06
-1.03011e-07
8.58328e-07
-1.42442e-07
5.92867e-07
-3.5906e-08
3.6876e-09
-1.03413e-07
-4.72593e-07
-4.17225e-08
-1.34759e-06
9.13287e-08
-1.97274e-06
2.49483e-07
-2.26578e-06
4.04127e-07
-2.32313e-06
5.49112e-07
-2.28985e-06
6.83998e-07
-2.21969e-06
8.1241e-07
-2.1382e-06
9.39536e-07
-2.05886e-06
1.07208e-06
-1.98859e-06
1.21785e-06
-1.93395e-06
1.38277e-06
-1.90278e-06
1.56084e-06
-1.89948e-06
1.72794e-06
-1.92026e-06
1.85901e-06
-1.95659e-06
1.955e-06
-2.00605e-06
2.03496e-06
-2.07249e-06
2.11195e-06
-2.15458e-06
-2.24544e-06
2.18607e-06
2.09508e-08
1.18481e-06
1.3772e-08
1.2014e-06
2.70785e-08
1.04867e-06
6.00761e-08
8.15454e-07
1.72062e-07
5.31014e-07
2.97466e-07
-1.01685e-07
1.46702e-07
-3.17527e-07
1.51787e-07
-1.3496e-06
2.3726e-07
-2.05555e-06
3.68082e-07
-2.39457e-06
5.02389e-07
-2.45468e-06
6.29969e-07
-2.41606e-06
7.51133e-07
-2.33852e-06
8.68341e-07
-2.2535e-06
9.86899e-07
-2.17581e-06
1.11181e-06
-2.11213e-06
1.24504e-06
-2.06605e-06
1.38166e-06
-2.03848e-06
1.51089e-06
-2.02796e-06
1.62533e-06
-2.03403e-06
1.72864e-06
-2.05931e-06
1.82897e-06
-2.10591e-06
1.92822e-06
-2.17086e-06
2.02129e-06
-2.24751e-06
-2.32819e-06
2.10464e-06
5.51756e-08
1.13004e-06
8.27891e-08
1.17533e-06
1.11068e-07
1.01552e-06
1.75764e-07
7.66983e-07
2.96776e-07
3.9535e-07
2.74369e-07
-8.04747e-08
3.62276e-07
-4.06087e-07
3.72479e-07
-1.35941e-06
4.18661e-07
-2.10115e-06
5.15499e-07
-2.49034e-06
6.18596e-07
-2.55777e-06
7.21738e-07
-2.51702e-06
8.21231e-07
-2.43689e-06
9.1943e-07
-2.35044e-06
1.01928e-06
-2.27444e-06
1.12257e-06
-2.21431e-06
1.22815e-06
-2.17064e-06
1.33332e-06
-2.14281e-06
1.43783e-06
-2.13175e-06
1.54437e-06
-2.13994e-06
1.65374e-06
-2.16809e-06
1.76188e-06
-2.21342e-06
1.86249e-06
-2.27118e-06
1.95219e-06
-2.33644e-06
-2.40617e-06
2.03055e-06
8.88194e-08
1.03921e-06
1.42509e-07
1.11933e-06
1.90142e-07
9.72183e-07
2.38448e-07
7.01813e-07
3.76711e-07
2.52158e-07
4.35175e-07
-1.51519e-07
5.94145e-07
-5.70218e-07
6.04196e-07
-1.37147e-06
6.19769e-07
-2.11765e-06
6.77281e-07
-2.54871e-06
7.44352e-07
-2.6238e-06
8.15351e-07
-2.58859e-06
8.88474e-07
-2.50919e-06
9.6333e-07
-2.42442e-06
1.04174e-06
-2.35193e-06
1.12476e-06
-2.29642e-06
1.21291e-06
-2.25795e-06
1.30723e-06
-2.23637e-06
1.40811e-06
-2.23197e-06
1.513e-06
-2.24422e-06
1.61667e-06
-2.27122e-06
1.71411e-06
-2.31039e-06
1.80278e-06
-2.35919e-06
1.88236e-06
-2.41564e-06
-2.47781e-06
1.95452e-06
1.20446e-07
9.17011e-07
2.03933e-07
1.03466e-06
2.66653e-07
9.02562e-07
3.32558e-07
6.31864e-07
4.34487e-07
1.30615e-07
5.79921e-07
-3.11073e-07
7.63375e-07
-7.60221e-07
7.98352e-07
-1.40971e-06
8.06706e-07
-2.12789e-06
8.35224e-07
-2.57793e-06
8.65716e-07
-2.65596e-06
9.05625e-07
-2.62793e-06
9.51645e-07
-2.55519e-06
1.00506e-06
-2.47744e-06
1.06703e-06
-2.41329e-06
1.13819e-06
-2.36689e-06
1.2183e-06
-2.33738e-06
1.30582e-06
-2.32324e-06
1.39748e-06
-2.32304e-06
1.48921e-06
-2.33541e-06
1.57767e-06
-2.35917e-06
1.66102e-06
-2.39324e-06
1.73875e-06
-2.43649e-06
1.81124e-06
-2.4876e-06
-2.54511e-06
1.87904e-06
1.48735e-07
7.63442e-07
2.59789e-07
9.20551e-07
3.50908e-07
8.09075e-07
4.41185e-07
5.30919e-07
5.19084e-07
3.55082e-08
6.89509e-07
-4.91474e-07
8.54312e-07
-9.30827e-07
9.25182e-07
-1.48398e-06
9.53418e-07
-2.15815e-06
9.67346e-07
-2.59364e-06
9.72495e-07
-2.6612e-06
9.84849e-07
-2.64151e-06
1.00863e-06
-2.5791e-06
1.04537e-06
-2.51401e-06
1.09522e-06
-2.46275e-06
1.1565e-06
-2.42765e-06
1.22639e-06
-2.40671e-06
1.30159e-06
-2.39789e-06
1.37904e-06
-2.39995e-06
1.45641e-06
-2.41229e-06
1.53224e-06
-2.43454e-06
1.60563e-06
-2.46618e-06
1.67598e-06
-2.50642e-06
1.74303e-06
-2.55408e-06
-2.60821e-06
1.80652e-06
1.70774e-07
5.90996e-07
3.06636e-07
7.8302e-07
4.13805e-07
6.98559e-07
5.14776e-07
4.21835e-07
6.01823e-07
-6.02125e-08
7.3222e-07
-6.29113e-07
8.79802e-07
-1.08315e-06
9.91455e-07
-1.59859e-06
1.05405e-06
-2.22266e-06
1.06277e-06
-2.6034e-06
1.0525e-06
-2.65267e-06
1.04614e-06
-2.6354e-06
1.05355e-06
-2.58689e-06
1.07771e-06
-2.53818e-06
1.11678e-06
-2.50158e-06
1.16712e-06
-2.47761e-06
1.22515e-06
-2.46428e-06
1.28796e-06
-2.46023e-06
1.3535e-06
-2.46503e-06
1.42028e-06
-2.47863e-06
1.48709e-06
-2.50092e-06
1.55283e-06
-2.53154e-06
1.61675e-06
-2.5698e-06
1.67805e-06
-2.61509e-06
-2.66626e-06
1.73665e-06
1.81707e-07
4.0596e-07
3.40846e-07
6.22317e-07
4.57497e-07
5.79844e-07
5.57374e-07
3.19463e-07
6.40313e-07
-1.50923e-07
7.32507e-07
-7.25304e-07
8.73651e-07
-1.22755e-06
1.02621e-06
-1.75333e-06
1.11708e-06
-2.31501e-06
1.11871e-06
-2.60641e-06
1.09987e-06
-2.63416e-06
1.08263e-06
-2.61914e-06
1.08082e-06
-2.58541e-06
1.09663e-06
-2.55405e-06
1.12705e-06
-2.53184e-06
1.16802e-06
-2.51827e-06
1.21628e-06
-2.51216e-06