/*--------------------------------*- C++ -*----------------------------------*\
  =========                 |
  \\      /  F ield         | OpenFOAM: The Open Source CFD Toolbox
   \\    /   O peration     | Website:  https://openfoam.org
    \\  /    A nd           | Version:  13
     \\/     M anipulation  |
\*---------------------------------------------------------------------------*/
FoamFile
{
    format      ascii;
    class       volVectorField;
    location    "29";
    object      U;
}
// * * * * * * * * * * * * * * * * * * * * * * * * * * * * * * * * * * * * * //

dimensions      [0 1 -1 0 0 0 0];

internalField   nonuniform List<vector> 
6440
(
(3.93551e-07 -7.25854e-07 0)
(9.41778e-07 -1.12405e-06 0)
(1.7627e-06 -1.04201e-06 -6.11944e-21)
(2.28604e-06 -1.06251e-06 6.1001e-21)
(2.70129e-06 -1.20576e-06 0)
(2.95338e-06 -1.37212e-06 -1.20486e-20)
(3.03545e-06 -1.53055e-06 1.19737e-20)
(2.9317e-06 -1.65621e-06 0)
(2.62598e-06 -1.7217e-06 2.35781e-20)
(2.11775e-06 -1.70317e-06 -2.33638e-20)
(1.42174e-06 -1.57964e-06 -2.3234e-20)
(5.53236e-07 -1.33183e-06 -9.3424e-23)
(-4.70841e-07 -9.38481e-07 -1.21772e-22)
(-1.55588e-06 -4.15129e-07 2.26381e-20)
(-2.63227e-06 1.84134e-07 2.2651e-20)
(-3.66241e-06 8.27255e-07 -2.23318e-20)
(-4.55788e-06 1.50474e-06 0)
(-5.28164e-06 2.20513e-06 4.44583e-20)
(-5.82684e-06 2.92062e-06 3.91878e-22)
(-6.18152e-06 3.59358e-06 -4.33938e-20)
(-6.33085e-06 4.09128e-06 4.33938e-20)
(-6.22307e-06 4.147e-06 -8.56021e-20)
(-6.77962e-06 3.75546e-06 4.21939e-20)
(-5.69335e-06 1.03376e-06 -4.20779e-20)
(-1.75937e-06 -1.90412e-06 -1.12754e-22)
(3.92129e-07 -1.9727e-06 0)
(9.04821e-07 -2.94153e-06 0)
(1.63091e-06 -2.61512e-06 -6.52328e-21)
(2.14415e-06 -2.47689e-06 6.50283e-21)
(2.62764e-06 -2.56391e-06 0)
(3.01406e-06 -2.68031e-06 -1.28194e-20)
(3.2989e-06 -2.78113e-06 1.27403e-20)
(3.47355e-06 -2.84508e-06 0)
(3.52212e-06 -2.84853e-06 0)
(3.43177e-06 -2.76962e-06 0)
(3.19278e-06 -2.59192e-06 0)
(2.79496e-06 -2.3027e-06 -2.43271e-20)
(2.23637e-06 -1.89118e-06 2.40434e-20)
(1.50706e-06 -1.34313e-06 0)
(5.98147e-07 -6.79698e-07 2.37966e-20)
(-3.56313e-07 1.64496e-08 -2.34635e-20)
(-1.23209e-06 6.79494e-07 0)
(-1.99464e-06 1.31241e-06 0)
(-2.60056e-06 1.91315e-06 4.66908e-20)
(-3.0547e-06 2.47381e-06 -4.59135e-20)
(-3.33544e-06 2.8948e-06 4.63477e-20)
(-3.2893e-06 2.79005e-06 -4.55247e-20)
(-4.53624e-06 2.39267e-06 -4.59692e-20)
(-5.3918e-06 -3.32569e-07 -5.95511e-22)
(-8.5247e-07 -5.01762e-06 3.32827e-20)
(4.05868e-07 -3.18645e-06 0)
(1.02591e-06 -4.45354e-06 0)
(1.7435e-06 -3.87288e-06 -6.59553e-21)
(2.26543e-06 -3.62154e-06 6.57597e-21)
(2.80575e-06 -3.67144e-06 0)
(3.2644e-06 -3.763e-06 -1.29351e-20)
(3.6129e-06 -3.81284e-06 2.5679e-20)
(3.85232e-06 -3.81034e-06 -1.27326e-20)
(3.9657e-06 -3.74216e-06 2.51272e-20)
(3.92203e-06 -3.5805e-06 -2.49121e-20)
(3.69148e-06 -3.30696e-06 -2.46056e-20)
(3.25088e-06 -2.90523e-06 -9.42442e-24)
(2.5843e-06 -2.36163e-06 2.40929e-20)
(1.67711e-06 -1.66063e-06 2.39516e-20)
(4.98076e-07 -7.7221e-07 1.47033e-22)
(-8.8702e-07 2.75575e-07 -2.34801e-20)
(-2.26186e-06 1.31493e-06 0)
(-3.47135e-06 2.28489e-06 4.71345e-20)
(-4.48422e-06 3.19826e-06 -4.64142e-20)
(-5.28763e-06 4.08787e-06 0)
(-5.8043e-06 4.88829e-06 4.72044e-20)
(-5.66678e-06 5.16426e-06 -9.36745e-20)
(-6.22486e-06 5.17195e-06 4.64455e-20)
(-6.48238e-06 3.27438e-06 -4.72021e-20)
(-4.09558e-07 -2.88688e-06 3.478e-20)
(4.50379e-07 -4.51602e-06 0)
(1.17686e-06 -5.83517e-06 0)
(1.87993e-06 -4.96073e-06 -6.65114e-21)
(2.37361e-06 -4.61459e-06 6.63249e-21)
(2.87759e-06 -4.63493e-06 0)
(3.3461e-06 -4.74066e-06 -1.30179e-20)
(3.72414e-06 -4.83318e-06 2.58351e-20)
(3.94111e-06 -4.85446e-06 -1.28065e-20)
(4.0101e-06 -4.82019e-06 0)
(3.91221e-06 -4.7199e-06 0)
(3.6028e-06 -4.52325e-06 0)
(3.05078e-06 -4.20709e-06 -2.43613e-20)
(2.23456e-06 -3.74514e-06 2.41054e-20)
(1.13989e-06 -3.1042e-06 2.39231e-20)
(-2.69952e-07 -2.23002e-06 -2.36369e-20)
(-2.02563e-06 -1.06473e-06 0)
(-3.92522e-06 2.67814e-07 4.72646e-20)
(-5.65895e-06 1.56541e-06 -4.66054e-20)
(-7.05191e-06 2.81904e-06 0)
(-8.05699e-06 4.05003e-06 0)
(-8.66e-06 5.27008e-06 0)
(-8.42774e-06 6.07344e-06 0)
(-8.33008e-06 6.61401e-06 0)
(-8.09377e-06 5.69342e-06 -4.83261e-20)
(-5.07513e-07 -1.44459e-06 -2.99947e-22)
(4.82574e-07 -5.97008e-06 0)
(1.28467e-06 -7.12124e-06 0)
(1.93457e-06 -5.9045e-06 -6.69801e-21)
(2.37156e-06 -5.45959e-06 6.68025e-21)
(2.78636e-06 -5.43992e-06 0)
(3.13762e-06 -5.51965e-06 -1.30853e-20)
(3.47092e-06 -5.65195e-06 2.59617e-20)
(3.67661e-06 -5.75531e-06 -1.28664e-20)
(3.67615e-06 -5.78012e-06 0)
(3.50234e-06 -5.76011e-06 0)
(3.12894e-06 -5.6802e-06 0)
(2.50928e-06 -5.50678e-06 -2.43439e-20)
(1.61714e-06 -5.20339e-06 2.41015e-20)
(4.34424e-07 -4.72176e-06 2.38749e-20)
(-1.06677e-06 -3.99145e-06 -2.36036e-20)
(-2.9716e-06 -2.89707e-06 0)
(-5.23248e-06 -1.41118e-06 4.72133e-20)
(-7.3816e-06 1.6261e-07 -4.65868e-20)
(-9.08954e-06 1.73499e-06 0)
(-1.033e-05 3.3124e-06 0)
(-1.10276e-05 4.8851e-06 0)
(-1.07582e-05 6.10938e-06 0)
(-1.02564e-05 7.10121e-06 0)
(-9.79175e-06 7.08994e-06 -4.91446e-20)
(-7.98989e-07 -5.53103e-07 3.7052e-20)
(4.92259e-07 -7.47006e-06 0)
(1.33962e-06 -8.2619e-06 0)
(1.90326e-06 -6.66762e-06 -6.7411e-21)
(2.25203e-06 -6.10285e-06 6.72419e-21)
(2.55768e-06 -6.02905e-06 0)
(2.7754e-06 -6.07367e-06 -1.31467e-20)
(2.96294e-06 -6.18954e-06 2.60774e-20)
(3.11766e-06 -6.36329e-06 -1.29212e-20)
(3.11107e-06 -6.49417e-06 2.53197e-20)
(2.8846e-06 -6.57059e-06 -2.51356e-20)
(2.47269e-06 -6.62875e-06 0)
(1.84599e-06 -6.6373e-06 -2.43195e-20)
(9.64479e-07 -6.54622e-06 5.02045e-23)
(-1.96302e-07 -6.29471e-06 4.76055e-20)
(-1.66535e-06 -5.79508e-06 -2.35523e-20)
(-3.54275e-06 -4.90813e-06 0)
(-5.93459e-06 -3.45444e-06 4.70503e-20)
(-8.39724e-06 -1.65035e-06 7.17679e-22)
(-1.04511e-05 1.83995e-07 8.88452e-22)
(-1.199e-05 2.08803e-06 -4.67899e-20)
(-1.28892e-05 4.01133e-06 0)
(-1.27202e-05 5.63125e-06 0)
(-1.19884e-05 7.01187e-06 0)
(-1.14138e-05 7.812e-06 -4.97066e-20)
(-1.13983e-06 -4.85411e-08 3.78939e-20)
(4.86893e-07 -8.94763e-06 0)
(1.36037e-06 -9.21764e-06 0)
(1.82525e-06 -7.22675e-06 -6.78344e-21)
(2.07895e-06 -6.52241e-06 6.76734e-21)
(2.26444e-06 -6.37554e-06 1.33512e-20)
(2.3507e-06 -6.39014e-06 -2.65074e-20)
(2.39119e-06 -6.49609e-06 2.61945e-20)
(2.43407e-06 -6.69232e-06 -1.29769e-20)
(2.40969e-06 -6.94206e-06 0)
(2.18351e-06 -7.16234e-06 2.50046e-20)
(1.76384e-06 -7.39348e-06 -2.48148e-20)
(1.17911e-06 -7.62717e-06 -2.4297e-20)
(3.83379e-07 -7.80475e-06 2.40796e-20)
(-6.64539e-07 -7.85001e-06 2.37336e-20)
(-2.00677e-06 -7.66124e-06 -2.34905e-20)
(-3.7198e-06 -7.0886e-06 0)
(-5.99055e-06 -5.87979e-06 4.67931e-20)
(-8.68074e-06 -3.97301e-06 -4.62315e-20)
(-1.11544e-05 -1.88353e-06 0)
(-1.30519e-05 3.53229e-07 4.7672e-20)
(-1.42716e-05 2.68608e-06 -4.70257e-20)
(-1.43075e-05 4.73662e-06 0)
(-1.3456e-05 6.48972e-06 0)
(-1.28568e-05 8.01488e-06 -5.00601e-20)
(-1.44923e-06 1.19783e-07 -4.29993e-22)
(4.73388e-07 -1.03632e-05 0)
(1.36301e-06 -9.9866e-06 0)
(1.73543e-06 -7.59729e-06 -6.82693e-21)
(1.90466e-06 -6.74297e-06 6.81159e-21)
(1.98158e-06 -6.52076e-06 0)
(1.95757e-06 -6.51631e-06 -1.32749e-20)
(1.88766e-06 -6.63906e-06 1.3216e-20)
(1.81928e-06 -6.86846e-06 0)
(1.75026e-06 -7.21134e-06 0)
(1.53544e-06 -7.60463e-06 0)
(1.14131e-06 -8.04061e-06 0)
(6.37441e-07 -8.53142e-06 -2.42847e-20)
(-1.54562e-08 -9.02219e-06 2.40787e-20)
(-8.80269e-07 -9.4201e-06 0)
(-2.01138e-06 -9.61036e-06 0)
(-3.48917e-06 -9.42773e-06 0)
(-5.50809e-06 -8.60877e-06 0)
(-8.25818e-06 -6.83157e-06 0)
(-1.10908e-05 -4.4721e-06 4.68762e-20)
(-1.33721e-05 -1.86967e-06 -4.62933e-20)
(-1.50186e-05 9.63284e-07 0)
(-1.54154e-05 3.54837e-06 0)
(-1.45901e-05 5.70636e-06 0)
(-1.40649e-05 7.89975e-06 -5.02428e-20)
(-1.68935e-06 6.54416e-08 3.91253e-20)
(4.56469e-07 -1.16962e-05 0)
(1.36169e-06 -1.05933e-05 0)
(1.66758e-06 -7.82207e-06 -6.87268e-21)
(1.78547e-06 -6.8223e-06 6.85805e-21)
(1.7953e-06 -6.54102e-06 0)
(1.70819e-06 -6.54473e-06 -1.33483e-20)
(1.58382e-06 -6.72031e-06 2.64617e-20)
(1.45817e-06 -7.0237e-06 -1.31053e-20)
(1.33991e-06 -7.46212e-06 0)
(1.13131e-06 -8.02485e-06 0)
(7.991e-07 -8.66631e-06 2.46926e-20)
(4.03438e-07 -9.41388e-06 -4.87994e-20)
(-7.60682e-08 -1.02251e-05 2.4095e-20)
(-7.09219e-07 -1.10002e-05 2.35951e-20)
(-1.57605e-06 -1.16014e-05 -2.33771e-20)
(-2.77098e-06 -1.18515e-05 0)
(-4.47426e-06 -1.14721e-05 -4.6123e-20)
(-6.99043e-06 -1.00506e-05 4.5622e-20)
(-9.97949e-06 -7.53672e-06 0)
(-1.2738e-05 -4.52437e-06 0)
(-1.49521e-05 -1.09677e-06 0)
(-1.59022e-05 2.18046e-06 4.85747e-20)
(-1.52653e-05 4.82738e-06 -4.79349e-20)
(-1.49542e-05 7.66561e-06 -5.02811e-20)
(-1.82414e-06 -8.35887e-08 3.95526e-20)
(4.37931e-07 -1.29381e-05 0)
(1.36597e-06 -1.10823e-05 0)
(1.64829e-06 -7.969e-06 0)
(1.7701e-06 -6.8506e-06 0)
(1.78199e-06 -6.55008e-06 0)
(1.71009e-06 -6.61101e-06 0)
(1.61246e-06 -6.88726e-06 0)
(1.51198e-06 -7.30869e-06 0)
(1.40845e-06 -7.8618e-06 -2.56471e-20)
(1.26077e-06 -8.56179e-06 2.5497e-20)
(1.03415e-06 -9.40239e-06 0)
(7.63848e-07 -1.03754e-05 0)
(4.70836e-07 -1.14618e-05 0)
(9.50207e-08 -1.25782e-05 0)
(-4.62266e-07 -1.35784e-05 0)
(-1.31456e-06 -1.42615e-05 0)
(-2.64656e-06 -1.43367e-05 0)
(-4.75109e-06 -1.33585e-05 -4.57423e-20)
(-7.72722e-06 -1.09622e-05 4.52473e-20)
(-1.09409e-05 -7.57077e-06 0)
(-1.37516e-05 -3.45225e-06 -4.723e-20)
(-1.54217e-05 7.05845e-07 4.66564e-20)
(-1.52474e-05 3.98346e-06 0)
(-1.54356e-05 7.43485e-06 0)
(-1.85705e-06 -2.17597e-07 0)
(4.17748e-07 -1.40869e-05 0)
(1.38271e-06 -1.15104e-05 0)
(1.69989e-06 -8.12423e-06 0)
(1.90377e-06 -6.94213e-06 0)
(2.01723e-06 -6.68934e-06 0)
(2.07695e-06 -6.8802e-06 0)
(2.13452e-06 -7.32521e-06 1.33317e-20)
(2.20222e-06 -7.92369e-06 -1.32735e-20)
(2.2575e-06 -8.6372e-06 -2.57881e-20)
(2.2274e-06 -9.46504e-06 2.56451e-20)
(2.13932e-06 -1.0458e-05 2.48475e-20)
(2.06604e-06 -1.15846e-05 -2.46815e-20)
(1.99403e-06 -1.28395e-05 0)
(1.88202e-06 -1.41776e-05 2.35437e-20)
(1.65088e-06 -1.5481e-05 -1.5192e-22)
(1.17243e-06 -1.65407e-05 -2.29898e-20)
(2.69241e-07 -1.70588e-05 0)
(-1.41281e-06 -1.65479e-05 -4.53327e-20)
(-4.19115e-06 -1.44709e-05 4.48654e-20)
(-7.53182e-06 -1.09207e-05 0)
(-1.08967e-05 -6.05228e-06 0)
(-1.35882e-05 -7.99316e-07 4.7744e-20)
(-1.43664e-05 3.41028e-06 -4.71727e-20)
(-1.538e-05 7.47729e-06 0)
(-1.64191e-06 -1.63929e-07 0)
(3.94572e-07 -1.51445e-05 0)
(1.41673e-06 -1.19432e-05 0)
(1.84129e-06 -8.38796e-06 0)
(2.22682e-06 -7.2299e-06 0)
(2.56907e-06 -7.12205e-06 0)
(2.91037e-06 -7.5433e-06 0)
(3.28954e-06 -8.25354e-06 0)
(3.69618e-06 -9.115e-06 0)
(4.07938e-06 -1.00711e-05 0)
(4.3415e-06 -1.10936e-05 0)
(4.55017e-06 -1.2163e-05 -2.49818e-20)
(4.78193e-06 -1.33164e-05 2.48234e-20)
(4.98384e-06 -1.45697e-05 0)
(5.14148e-06 -1.59113e-05 0)
(5.21449e-06 -1.72907e-05 0)
(5.09905e-06 -1.85556e-05 0)
(4.60008e-06 -1.94048e-05 0)
(3.37808e-06 -1.935e-05 0)
(9.93638e-07 -1.76578e-05 0)
(-2.14698e-06 -1.40854e-05 0)
(-5.95252e-06 -8.74932e-06 0)
(-9.89657e-06 -2.21721e-06 -4.71822e-20)
(-1.21159e-05 3.28925e-06 4.66437e-20)
(-1.44524e-05 8.24705e-06 0)
(-1.08704e-06 4.47057e-07 0)
(3.66471e-07 -1.61155e-05 0)
(1.47257e-06 -1.24535e-05 0)
(2.09029e-06 -8.87311e-06 0)
(2.77584e-06 -7.86263e-06 0)
(3.49673e-06 -8.02748e-06 1.39121e-20)
(4.29361e-06 -8.80561e-06 -1.38728e-20)
(5.18878e-06 -9.90268e-06 0)
(6.13534e-06 -1.11288e-05 0)
(7.05049e-06 -1.24095e-05 -2.61836e-20)
(7.90246e-06 -1.37052e-05 5.17357e-20)
(8.7e-06 -1.48585e-05 -3.74536e-22)
(9.40565e-06 -1.59682e-05 -2.50152e-20)
(1.00046e-05 -1.70918e-05 0)
(1.04944e-05 -1.8196e-05 0)
(1.08452e-05 -1.9304e-05 2.32208e-20)
(1.10093e-05 -2.03501e-05 -2.30346e-20)
(1.08577e-05 -2.112e-05 -4.50815e-20)
(1.01304e-05 -2.11731e-05 -1.58238e-23)
(8.45212e-06 -1.9811e-05 4.4276e-20)
(5.57053e-06 -1.62912e-05 4.48176e-20)
(1.46516e-06 -1.07265e-05 -4.43611e-20)
(-3.5353e-06 -3.40526e-06 4.65326e-20)
(-7.63158e-06 3.57529e-06 -4.60256e-20)
(-1.20782e-05 9.92091e-06 0)
(-5.98237e-08 1.87226e-06 0)
(3.31825e-07 -1.70086e-05 0)
(1.55531e-06 -1.31221e-05 0)
(2.46302e-06 -9.70343e-06 0)
(3.58065e-06 -8.99862e-06 0)
(4.84651e-06 -9.58913e-06 0)
(6.29161e-06 -1.08748e-05 0)
(7.92853e-06 -1.24982e-05 0)
(9.66064e-06 -1.4196e-05 0)
(1.13631e-05 -1.59273e-05 -2.64479e-20)
(1.31208e-05 -1.76446e-05 2.63231e-20)
(1.48223e-05 -1.90796e-05 0)
(1.62425e-05 -2.01745e-05 0)
(1.7491e-05 -2.09602e-05 0)
(1.85619e-05 -2.14979e-05 0)
(1.93772e-05 -2.18346e-05 0)
(1.99483e-05 -2.20414e-05 0)
(2.02056e-05 -2.20692e-05 0)
(1.99574e-05 -2.16385e-05 -4.45065e-20)
(1.88226e-05 -2.01377e-05 4.41094e-20)
(1.62446e-05 -1.6738e-05 0)
(1.17386e-05 -1.0914e-05 0)
(5.74652e-06 -3.02203e-06 0)
(3.02489e-08 4.89133e-06 0)
(-7.37372e-06 1.25954e-05 0)
(1.75123e-06 4.45602e-06 0)
(2.89143e-07 -1.78335e-05 0)
(1.66954e-06 -1.40264e-05 0)
(2.97557e-06 -1.09948e-05 0)
(4.66803e-06 -1.07807e-05 0)
(6.6489e-06 -1.19626e-05 0)
(8.94231e-06 -1.39213e-05 0)
(1.15776e-05 -1.62503e-05 0)
(1.43195e-05 -1.86792e-05 0)
(1.699e-05 -2.10883e-05 0)
(1.98753e-05 -2.32466e-05 0)
(2.28819e-05 -2.49965e-05 2.57368e-20)
(2.56745e-05 -2.61138e-05 -2.55959e-20)
(2.81758e-05 -2.65018e-05 0)
(3.02876e-05 -2.62275e-05 0)
(3.19438e-05 -2.53942e-05 2.35216e-20)
(3.31109e-05 -2.41563e-05 -2.33504e-20)
(3.37763e-05 -2.26882e-05 -4.51552e-20)
(3.38719e-05 -2.1013e-05 4.47895e-20)
(3.30812e-05 -1.8757e-05 0)
(3.06849e-05 -1.50017e-05 0)
(2.61207e-05 -8.88578e-06 0)
(1.9302e-05 -4.37745e-07 4.49922e-20)
(1.14264e-05 8.46329e-06 -9.08961e-20)
(2.88487e-07 1.73982e-05 4.58754e-20)
(4.86026e-06 8.98081e-06 0)
(2.38432e-07 -1.85814e-05 0)
(1.82411e-06 -1.51784e-05 0)
(3.64746e-06 -1.27964e-05 0)
(6.06397e-06 -1.33392e-05 0)
(8.9209e-06 -1.53777e-05 0)
(1.22189e-05 -1.8206e-05 0)
(1.59313e-05 -2.14266e-05 -1.39636e-20)
(1.98084e-05 -2.4828e-05 1.39166e-20)
(2.39446e-05 -2.80403e-05 -2.71173e-20)
(2.85457e-05 -3.06754e-05 2.70008e-20)
(3.33101e-05 -3.26757e-05 -2.61329e-20)
(3.79298e-05 -3.38e-05 2.59961e-20)
(4.22437e-05 -3.39196e-05 0)
(4.60269e-05 -3.29877e-05 -2.4419e-20)
(4.91139e-05 -3.09787e-05 2.42596e-20)
(5.13839e-05 -2.80571e-05 0)
(5.27375e-05 -2.44251e-05 0)
(5.31738e-05 -2.03654e-05 -4.45631e-20)
(5.26369e-05 -1.5996e-05 3.55328e-22)
(5.06561e-05 -1.0906e-05 4.34763e-20)
(4.61436e-05 -3.84442e-06 0)
(3.85607e-05 5.35478e-06 -4.40801e-20)
(2.85909e-05 1.48784e-05 4.36627e-20)
(1.26932e-05 2.5173e-05 0)
(9.96433e-06 1.66786e-05 -3.98383e-20)
(2.13182e-07 -1.92671e-05 0)
(2.05282e-06 -1.66895e-05 0)
(4.41638e-06 -1.53173e-05 0)
(7.60552e-06 -1.68665e-05 0)
(1.15076e-05 -1.99754e-05 0)
(1.59974e-05 -2.39002e-05 0)
(2.09036e-05 -2.82716e-05 0)
(2.62541e-05 -3.26766e-05 0)
(3.23476e-05 -3.65817e-05 0)
(3.90623e-05 -3.98159e-05 0)
(4.59849e-05 -4.22135e-05 0)
(5.28927e-05 -4.35106e-05 0)
(5.95153e-05 -4.34988e-05 0)
(6.56577e-05 -4.21125e-05 0)
(7.10563e-05 -3.92128e-05 0)
(7.53884e-05 -3.47351e-05 0)
(7.84442e-05 -2.87678e-05 0)
(8.00556e-05 -2.14941e-05 0)
(8.00901e-05 -1.32894e-05 0)
(7.84411e-05 -4.50374e-06 0)
(7.42585e-05 5.11947e-06 0)
(6.60166e-05 1.58072e-05 0)
(5.36642e-05 2.58109e-05 0)
(3.21848e-05 3.74218e-05 0)
(1.83448e-05 2.94326e-05 0)
(1.58142e-07 -1.99808e-05 3.27857e-21)
(2.22031e-06 -1.87344e-05 3.67e-21)
(5.22582e-06 -1.86913e-05 -7.34267e-21)
(9.37898e-06 -2.14665e-05 1.45871e-20)
(1.44158e-05 -2.58308e-05 -1.45614e-20)
(2.00894e-05 -3.11177e-05 0)
(2.64373e-05 -3.65121e-05 1.4269e-20)
(3.37978e-05 -4.15144e-05 1.40246e-20)
(4.21489e-05 -4.59024e-05 -5.6067e-20)
(5.11604e-05 -4.96315e-05 2.78069e-20)
(6.06068e-05 -5.24902e-05 2.71226e-20)
(7.02804e-05 -5.42513e-05 -2.69928e-20)
(7.98347e-05 -5.46195e-05 -2.61357e-20)
(8.90029e-05 -5.31314e-05 5.15593e-20)
(9.75865e-05 -4.95788e-05 -4.6048e-22)
(0.000105214 -4.40623e-05 2.38159e-20)
(0.000111514 -3.62856e-05 -4.82926e-20)
(0.00011605 -2.62323e-05 -4.58947e-20)
(0.000118396 -1.4093e-05 9.01197e-20)
(0.000118167 -2.5116e-07 -4.42188e-20)
(0.000114164 1.50334e-05 0)
(0.00010485 3.07828e-05 4.19877e-20)
(9.04883e-05 4.31552e-05 -8.38568e-20)
(6.27436e-05 5.83794e-05 4.18537e-20)
(3.31407e-05 5.26601e-05 3.71127e-20)
(8.65847e-08 -2.07971e-05 0)
(2.41872e-06 -2.13517e-05 0)
(6.15533e-06 -2.28799e-05 0)
(1.13061e-05 -2.71193e-05 0)
(1.74232e-05 -3.28854e-05 0)
(2.46886e-05 -3.92434e-05 0)
(3.32902e-05 -4.54571e-05 0)
(4.29558e-05 -5.10705e-05 0)
(5.35258e-05 -5.59996e-05 0)
(6.48709e-05 -6.01003e-05 0)
(7.68363e-05 -6.317e-05 0)
(8.92884e-05 -6.50323e-05 0)
(0.000102236 -6.5538e-05 0)
(0.000115508 -6.43849e-05 0)
(0.000128257 -6.1096e-05 0)
(0.000140231 -5.50624e-05 0)
(0.000151334 -4.62674e-05 0)
(0.000160825 -3.47958e-05 0)
(0.000168097 -2.02308e-05 -4.57939e-20)
(0.000172518 -2.85576e-06 4.54566e-20)
(0.000172332 1.83625e-05 0)
(0.000163933 4.42615e-05 0)
(0.000148858 6.7941e-05 0)
(0.000114553 0.000100825 0)
(6.28413e-05 0.00011312 0)
(6.30164e-08 -2.1788e-05 0)
(2.70906e-06 -2.46179e-05 0)
(7.213e-06 -2.80462e-05 0)
(1.34304e-05 -3.39565e-05 0)
(2.11573e-05 -4.11601e-05 0)
(3.03729e-05 -4.8551e-05 0)
(4.09875e-05 -5.57003e-05 0)
(5.28944e-05 -6.22234e-05 0)
(6.59291e-05 -6.78159e-05 0)
(7.9977e-05 -7.22357e-05 0)
(9.49212e-05 -7.52573e-05 -2.81028e-20)
(0.000110656 -7.66682e-05 2.79789e-20)
(0.000127083 -7.62971e-05 0)
(0.000144035 -7.4121e-05 0)
(0.000161681 -7.01642e-05 0)
(0.000179625 -6.37093e-05 0)
(0.000196782 -5.42491e-05 0)
(0.000213107 -4.11866e-05 0)
(0.000228238 -2.44315e-05 0)
(0.000242228 -4.07068e-06 0)
(0.000254261 2.01011e-05 0)
(0.000258556 5.1175e-05 -4.06424e-20)
(0.000258662 8.42116e-05 4.0325e-20)
(0.00023594 0.000126093 0)
(0.000113242 0.000225461 0)
(7.66819e-08 -2.30054e-05 0)
(3.03286e-06 -2.84336e-05 0)
(8.27053e-06 -3.38283e-05 0)
(1.5605e-05 -4.13041e-05 0)
(2.4791e-05 -4.97612e-05 0)
(3.57076e-05 -5.83781e-05 0)
(4.8231e-05 -6.65165e-05 0)
(6.22866e-05 -7.37885e-05 0)
(7.77619e-05 -7.98613e-05 0)
(9.45709e-05 -8.4463e-05 0)
(0.000112638 -8.73411e-05 0)
(0.000131903 -8.82639e-05 0)
(0.000152313 -8.70242e-05 0)
(0.00017382 -8.3423e-05 0)
(0.000196486 -7.71997e-05 0)
(0.000220366 -6.84388e-05 0)
(0.000245914 -5.66798e-05 0)
(0.000272892 -4.11743e-05 0)
(0.00030081 -2.16567e-05 0)
(0.000330278 3.3557e-06 0)
(0.000362748 3.32072e-05 0)
(0.000401479 6.93951e-05 0)
(0.000456716 0.000115285 0)
(0.000551166 0.000160677 0)
(0.000771761 0.000273128 0)
(1.09126e-07 -2.44382e-05 0)
(3.37701e-06 -3.27715e-05 0)
(9.22304e-06 -4.03512e-05 0)
(1.74369e-05 -4.96503e-05 0)
(2.77005e-05 -5.97923e-05 0)
(3.98847e-05 -7.00064e-05 0)
(5.38855e-05 -7.96406e-05 0)
(6.96186e-05 -8.82827e-05 0)
(8.70046e-05 -9.56219e-05 0)
(0.000105983 -0.000101402 0)
(0.000126512 -0.000105393 0)
(0.000148567 -0.000107379 0)
(0.000172152 -0.000107163 0)
(0.000197299 -0.000104555 0)
(0.000224103 -9.93692e-05 0)
(0.000252721 -9.15191e-05 0)
(0.000283488 -8.09376e-05 0)
(0.000316808 -6.80654e-05 0)
(0.00035363 -5.261e-05 0)
(0.00039373 -3.42625e-05 0)
(0.000437504 -1.31149e-05 0)
(0.000488997 1.05696e-05 0)
(0.000553771 3.47594e-05 0)
(0.000629673 4.66092e-05 0)
(0.00068003 2.14571e-05 0)
(1.25457e-07 -2.60696e-05 0)
(3.66133e-06 -3.76458e-05 0)
(1.00192e-05 -4.77671e-05 0)
(1.89742e-05 -5.92784e-05 0)
(3.01671e-05 -7.14797e-05 0)
(4.34601e-05 -8.36211e-05 0)
(5.87549e-05 -9.5087e-05 0)
(7.59718e-05 -0.000105465 0)
(9.50462e-05 -0.000114464 0)
(0.000115935 -0.00012185 0)
(0.000138621 -0.000127414 0)
(0.000163113 -0.000130965 0)
(0.000189452 -0.000132325 0)
(0.000217713 -0.000131336 0)
(0.000248028 -0.000127861 0)
(0.000280597 -0.000121818 0)
(0.000315711 -0.000113195 0)
(0.000353724 -0.000102193 0)
(0.000395125 -8.91128e-05 0)
(0.000439978 -7.48996e-05 0)
(0.000488238 -5.91569e-05 0)
(0.000540368 -4.20139e-05 0)
(0.000595499 -2.50035e-05 0)
(0.000646164 -1.21574e-05 0)
(0.00066622 -2.93036e-06 0)
(1.36573e-07 -2.78328e-05 0)
(3.87859e-06 -4.28896e-05 0)
(1.06449e-05 -5.57792e-05 0)
(2.02034e-05 -6.97164e-05 0)
(3.21697e-05 -8.41667e-05 0)
(4.63962e-05 -9.84315e-05 0)
(6.27837e-05 -0.000111923 0)
(8.12529e-05 -0.000124248 0)
(0.000101745 -0.000135141 0)
(0.000124227 -0.000144394 0)
(0.000148694 -0.000151826 0)
(0.00017517 -0.000157275 0)
(0.000203709 -0.000160597 0)
(0.000234397 -0.000161671 0)
(0.000267357 -0.000160407 0)
(0.000302748 -0.000156764 0)
(0.00034076 -0.000150769 0)
(0.000381569 -0.000142563 0)
(0.000425248 -0.000132375 0)
(0.000471561 -0.000120583 0)
(0.000519771 -0.000107004 0)
(0.000568379 -9.09754e-05 0)
(0.000614209 -7.10092e-05 0)
(0.000650032 -4.3572e-05 0)
(0.000662363 1.72784e-06 0)
(1.40738e-07 -2.96837e-05 0)
(4.02508e-06 -4.84021e-05 0)
(1.10943e-05 -6.42429e-05 0)
(2.11162e-05 -8.07775e-05 0)
(3.36897e-05 -9.76382e-05 0)
(4.86581e-05 -0.000114186 0)
(6.59165e-05 -0.000129867 0)
(8.53819e-05 -0.000144311 0)
(0.000106995 -0.000157278 0)
(0.000130724 -0.000168589 0)
(0.000156564 -0.000178091 0)
(0.000184535 -0.000185649 0)
(0.000214681 -0.000191148 0)
(0.000247069 -0.000194496 0)
(0.000281775 -0.000195625 0)
(0.000318883 -0.000194505 0)
(0.000358447 -0.000191139 0)
(0.000400435 -0.000185556 0)
(0.000444636 -0.000177757 0)
(0.000490479 -0.000167576 0)
(0.000536815 -0.000154334 0)
(0.000581648 -0.00013636 0)
(0.00062168 -0.000110238 0)
(0.000652251 -6.95891e-05 0)
(0.000668249 -2.58823e-06 0)
(1.38204e-07 -3.15877e-05 0)
(4.10444e-06 -5.40976e-05 0)
(1.13778e-05 -7.30306e-05 0)
(2.17284e-05 -9.22972e-05 0)
(3.47463e-05 -0.000111692 0)
(5.02652e-05 -0.000130642 0)
(6.81726e-05 -0.000148625 0)
(8.83799e-05 -0.000165297 0)
(0.000110821 -0.000180445 0)
(0.000135458 -0.000193915 0)
(0.000162273 -0.000205579 0)
(0.000191273 -0.000215325 0)
(0.000222475 -0.000223053 0)
(0.000255908 -0.00022868 0)
(0.000291589 -0.000232135 0)
(0.000329513 -0.000233359 0)
(0.000369609 -0.000232283 0)
(0.000411687 -0.000228784 0)
(0.000455354 -0.000222591 0)
(0.000499883 -0.000213108 0)
(0.000544089 -0.000199081 0)
(0.000586225 -0.000178128 0)
(0.000624023 -0.000146086 0)
(0.00065527 -9.61707e-05 0)
(0.000679067 -1.86775e-05 0)
(1.29558e-07 -3.35121e-05 0)
(4.12265e-06 -5.98982e-05 0)
(1.15079e-05 -8.20288e-05 0)
(2.20627e-05 -0.000104131 0)
(3.53707e-05 -0.000126158 0)
(5.12585e-05 -0.000147599 0)
(6.96058e-05 -0.000167964 0)
(9.03148e-05 -0.000186937 0)
(0.000113311 -0.000204329 0)
(0.000138541 -0.000220009 0)
(0.000165974 -0.000233869 0)
(0.000195591 -0.000245812 0)
(0.000227381 -0.000255742 0)
(0.000261327 -0.00026357 0)
(0.000297391 -0.000269199 0)
(0.000335493 -0.000272515 0)
(0.000375472 -0.000273354 0)
(0.000417047 -0.000271437 0)
(0.000459757 -0.000266261 0)
(0.000502901 -0.000256912 0)
(0.000545506 -0.00024178 0)
(0.000586381 -0.000218189 0)
(0.000624383 -0.000182002 0)
(0.000659062 -0.000127376 0)
(0.000691635 -4.71201e-05 0)
(1.15688e-07 -3.54273e-05 0)
(4.08644e-06 -6.57331e-05 0)
(1.15021e-05 -9.11329e-05 0)
(2.21469e-05 -0.000116146 0)
(3.56054e-05 -0.000140874 0)
(5.16972e-05 -0.000164867 0)
(7.02941e-05 -0.000187668 0)
(9.12897e-05 -0.000208985 0)
(0.000114597 -0.000228651 0)
(0.000140149 -0.000246555 0)
(0.000167896 -0.000262605 0)
(0.000197794 -0.000276709 0)
(0.000229802 -0.00028877 0)
(0.000263867 -0.000298681 0)
(0.000299909 -0.00030631 0)
(0.000337796 -0.00031148 0)
(0.000377326 -0.000313932 0)
(0.000418193 -0.000313256 0)
(0.000459965 -0.000308784 0)
(0.000502076 -0.000299428 0)
(0.000543868 -0.000283458 0)
(0.000584734 -0.000258268 0)
(0.000624429 -0.000220193 0)
(0.0006636 -0.000164606 0)
(0.00070446 -8.65163e-05 0)
(9.75558e-08 -3.73079e-05 0)
(4.00432e-06 -7.15402e-05 0)
(1.13784e-05 -0.000100251 0)
(2.20147e-05 -0.000128223 0)
(3.55004e-05 -0.000155697 0)
(5.16514e-05 -0.00018228 0)
(7.03327e-05 -0.000207547 0)
(9.14285e-05 -0.000231228 0)
(0.000114842 -0.000253174 0)
(0.00014049 -0.000273292 0)
(0.000168307 -0.0002915 0)
(0.000198228 -0.00030771 0)
(0.000230188 -0.000321816 0)
(0.000264108 -0.000333691 0)
(0.000299881 -0.000343166 0)
(0.00033736 -0.000350008 0)
(0.000376336 -0.000353882 0)
(0.000416536 -0.000354288 0)
(0.000457615 -0.000350472 0)
(0.000499192 -0.000341296 0)
(0.00054093 -0.000325096 0)
(0.000582701 -0.00029955 0)
(0.000624877 -0.000261646 0)
(0.000668714 -0.000207908 0)
(0.000716753 -0.000135004 0)
(7.62479e-08 -3.91324e-05 0)
(3.88438e-06 -7.72668e-05 0)
(1.11577e-05 -0.000109302 0)
(2.1701e-05 -0.000140259 0)
(3.511e-05 -0.000170502 0)
(5.11976e-05 -0.000199695 0)
(6.98236e-05 -0.00022744 0)
(9.0866e-05 -0.000253487 0)
(0.000114217 -0.000277705 0)
(0.000139785 -0.000300014 0)
(0.000167486 -0.000320339 0)
(0.000197244 -0.000338594 0)
(0.000228977 -0.000354666 0)
(0.000262593 -0.000368407 0)
(0.000297977 -0.000379619 0)
(0.000334988 -0.000388028 0)
(0.000373446 -0.00039325 0)
(0.000413138 -0.000394741 0)
(0.000453838 -0.000391727 0)
(0.000495354 -0.00038312 0)
(0.000537619 -0.00036743 0)
(0.000580858 -0.000342715 0)
(0.000625807 -0.000306631 0)
(0.000673987 -0.000256679 0)
(0.000727905 -0.000190724 0)
(5.27049e-08 -4.08842e-05 0)
(3.73559e-06 -8.28699e-05 0)
(1.08594e-05 -0.000118223 0)
(2.12419e-05 -0.000152167 0)
(3.44882e-05 -0.000185186 0)
(5.04119e-05 -0.000216993 0)
(6.88702e-05 -0.000247214 0)
(8.97353e-05 -0.000275619 0)
(0.000112894 -0.000302092 0)
(0.000138246 -0.000326562 0)
(0.000165699 -0.000348965 0)
(0.000195167 -0.000369214 0)
(0.000226563 -0.000387191 0)
(0.000259791 -0.000402735 0)
(0.000294748 -0.000415627 0)
(0.00033131 -0.000425573 0)
(0.000369346 -0.000432167 0)
(0.000408721 -0.000434863 0)
(0.000449327 -0.000432922 0)
(0.000491139 -0.000425361 0)
(0.000534301 -0.000410918 0)
(0.000579261 -0.000388048 0)
(0.000626942 -0.000355005 0)
(0.000678907 -0.000310076 0)
(0.00073747 -0.000251976 0)
(2.79751e-08 -4.25508e-05 0)
(3.56554e-06 -8.83162e-05 0)
(1.05035e-05 -0.00012696 0)
(2.06709e-05 -0.000163881 0)
(3.36873e-05 -0.000199668 0)
(4.93681e-05 -0.000234078 0)
(6.75694e-05 -0.000266766 0)
(8.81624e-05 -0.000297513 0)
(0.00011103 -0.000326219 0)
(0.000136067 -0.000352825 0)
(0.000163179 -0.000377272 0)
(0.000192276 -0.000399477 0)
(0.000223272 -0.000419322 0)
(0.000256081 -0.00043664 0)
(0.000290613 -0.000451205 0)
(0.00032678 -0.000462718 0)
(0.000364501 -0.000470781 0)
(0.000403721 -0.000474874 0)
(0.00044444 -0.000474329 0)
(0.000486764 -0.000468301 0)
(0.000530984 -0.000455766 0)
(0.000577678 -0.000435543 0)
(0.000627826 -0.000406393 0)
(0.000682916 -0.000367205 0)
(0.000744983 -0.000317295 0)
(2.88744e-09 -4.41237e-05 0)
(3.38213e-06 -9.35813e-05 0)
(1.01068e-05 -0.000135474 0)
(2.00196e-05 -0.000175347 0)
(3.27546e-05 -0.000213882 0)
(4.81319e-05 -0.000250879 0)
(6.60096e-05 -0.000286014 0)
(8.62584e-05 -0.000319085 0)
(0.000108762 -0.000350003 0)
(0.000133415 -0.000378722 0)
(0.000160123 -0.00040519 0)
(0.000188799 -0.000429331 0)
(0.000219363 -0.000451029 0)
(0.000251743 -0.000470122 0)
(0.000285871 -0.00048639 0)
(0.000321696 -0.000499544 0)
(0.000359188 -0.000509212 0)
(0.000398361 -0.000514925 0)
(0.000439302 -0.000516104 0)
(0.000482215 -0.000512053 0)
(0.000527483 -0.000501972 0)
(0.000575741 -0.000484999 0)
(0.000627953 -0.000460294 0)
(0.000685469 -0.000427197 0)
(0.000750028 -0.000385441 0)
(-2.17179e-08 -4.55984e-05 0)
(3.19123e-06 -9.86487e-05 0)
(9.68541e-06 -0.000143738 0)
(1.93147e-05 -0.000186526 0)
(3.17315e-05 -0.00022778 0)
(4.67614e-05 -0.000267339 0)
(6.42656e-05 -0.000304899 0)
(8.4119e-05 -0.000340274 0)
(0.000106207 -0.000373385 0)
(0.000130427 -0.000404198 0)
(0.000156688 -0.000432673 0)
(0.000184911 -0.000458742 0)
(0.000215025 -0.000482299 0)
(0.000246974 -0.000503192 0)
(0.000280716 -0.000521216 0)
(0.000316232 -0.000536106 0)
(0.00035354 -0.000547531 0)
(0.000392708 -0.000555085 0)
(0.000433887 -0.000558286 0)
(0.000477347 -0.000556585 0)
(0.000523518 -0.000549381 0)
(0.000573043 -0.000536073 0)
(0.000626827 -0.000516133 0)
(0.000686061 -0.00048923 0)
(0.000752207 -0.000455375 0)
(-4.52795e-08 -4.69731e-05 0)
(2.99877e-06 -0.000103509 0)
(9.25129e-06 -0.000151731 0)
(1.85795e-05 -0.000197392 0)
(3.06526e-05 -0.00024133 0)
(4.53039e-05 -0.000283421 0)
(6.24003e-05 -0.00032338 0)
(8.18205e-05 -0.000361035 0)
(0.000103456 -0.000396322 0)
(0.000127208 -0.000429217 0)
(0.000152993 -0.000459692 0)
(0.000180739 -0.000487692 0)
(0.000210389 -0.000513124 0)
(0.000241902 -0.000535854 0)
(0.00027526 -0.000555699 0)
(0.000310473 -0.000572427 0)
(0.000347594 -0.000585755 0)
(0.000386735 -0.000595346 0)
(0.000428089 -0.000600818 0)
(0.000471959 -0.000601753 0)
(0.000518791 -0.000597723 0)
(0.000569204 -0.000588337 0)
(0.000624021 -0.000573303 0)
(0.000684272 -0.00055252 0)
(0.00075117 -0.000526187 0)
(-6.72166e-08 -4.82488e-05 0)
(2.80842e-06 -0.000108157 0)
(8.81552e-06 -0.000159445 0)
(1.78315e-05 -0.000207926 0)
(2.95453e-05 -0.000254508 0)
(4.37977e-05 -0.000299095 0)
(6.04617e-05 -0.000341425 0)
(7.94233e-05 -0.000381339 0)
(0.000100579 -0.000418784 0)
(0.000123837 -0.00045375 0)
(0.000149122 -0.000486222 0)
(0.000176371 -0.000516161 0)
(0.000205539 -0.000543491 0)
(0.000236599 -0.000568098 0)
(0.000269554 -0.000589829 0)
(0.000304437 -0.000608489 0)
(0.000341328 -0.000623847 0)
(0.000380365 -0.000635635 0)
(0.000421764 -0.000643564 0)
(0.00046584 -0.000647332 0)
(0.000513028 -0.000646657 0)
(0.000563904 -0.000641312 0)
(0.000619198 -0.000631181 0)
(0.000679786 -0.000616323 0)
(0.000746667 -0.000597053 0)
(-8.72508e-08 -4.94283e-05 0)
(2.62397e-06 -0.000112595 0)
(8.38494e-06 -0.000166874 0)
(1.7085e-05 -0.000218121 0)
(2.84303e-05 -0.0002673 0)
(4.22708e-05 -0.000314346 0)
(5.84869e-05 -0.000359015 0)
(7.69705e-05 -0.000401163 0)
(9.7626e-05 -0.000440748 0)
(0.00012037 -0.000477775 0)
(0.000145132 -0.000512243 0)
(0.000171861 -0.000544129 0)
(0.00020052 -0.000573378 0)
(0.000231098 -0.0005999 0)
(0.000263611 -0.000623572 0)
(0.00029811 -0.00064424 0)
(0.000334689 -0.000661724 0)
(0.000373501 -0.000675823 0)
(0.000414769 -0.00068633 0)
(0.000458801 -0.000693045 0)
(0.000506007 -0.000695802 0)
(0.000556905 -0.000694503 0)
(0.000612127 -0.000689158 0)
(0.00067241 -0.000679937 0)
(0.000738567 -0.000667221 0)
(-1.05059e-07 -5.05159e-05 0)
(2.44703e-06 -0.000116824 0)
(7.96584e-06 -0.000174018 0)
(1.63492e-05 -0.000227972 0)
(2.73225e-05 -0.000279698 0)
(4.07438e-05 -0.000329161 0)
(5.65004e-05 -0.000376135 0)
(7.44927e-05 -0.000420489 0)