/*--------------------------------*- C++ -*----------------------------------*\
  =========                 |
  \\      /  F ield         | OpenFOAM: The Open Source CFD Toolbox
   \\    /   O peration     | Website:  https://openfoam.org
    \\  /    A nd           | Version:  13
     \\/     M anipulation  |
\*---------------------------------------------------------------------------*/
FoamFile
{
    format      ascii;
    class       volScalarField;
    location    "12";
    object      p;
}
// * * * * * * * * * * * * * * * * * * * * * * * * * * * * * * * * * * * * * //

dimensions      [0 2 -2 0 0 0 0];

internalField   nonuniform List<scalar> 
6440
(
153.458
153.458
153.456
153.454
153.453
153.444
153.414
153.36
153.297
153.247
153.228
153.243
153.286
153.342
153.406
153.482
153.553
153.593
153.607
153.603
153.591
153.581
153.577
153.579
153.582
153.455
153.454
153.452
153.45
153.442
153.414
153.358
153.285
153.217
153.175
153.169
153.198
153.255
153.323
153.393
153.464
153.523
153.559
153.569
153.56
153.548
153.542
153.546
153.556
153.561
153.463
153.461
153.456
153.442
153.41
153.353
153.274
153.187
153.113
153.071
153.071
153.111
153.182
153.263
153.342
153.415
153.471
153.498
153.499
153.487
153.479
153.482
153.495
153.51
153.514
153.477
153.478
153.47
153.444
153.394
153.318
153.226
153.132
153.055
153.014
153.014
153.05
153.121
153.209
153.294
153.364
153.406
153.415
153.402
153.389
153.391
153.408
153.434
153.461
153.473
153.488
153.492
153.487
153.459
153.401
153.318
153.22
153.126
153.051
153.011
153.004
153.038
153.106
153.186
153.26
153.308
153.317
153.297
153.281
153.284
153.308
153.345
153.392
153.438
153.461
153.494
153.5
153.499
153.474
153.418
153.337
153.248
153.168
153.113
153.096
153.111
153.151
153.197
153.232
153.249
153.243
153.224
153.205
153.208
153.23
153.268
153.327
153.394
153.457
153.482
153.502
153.51
153.506
153.473
153.413
153.342
153.283
153.247
153.241
153.271
153.322
153.364
153.369
153.338
153.289
153.241
153.214
153.204
153.209
153.24
153.301
153.378
153.448
153.491
153.502
153.498
153.495
153.456
153.385
153.314
153.276
153.276
153.302
153.361
153.441
153.513
153.545
153.521
153.448
153.356
153.281
153.245
153.247
153.277
153.334
153.406
153.47
153.506
153.512
153.505
153.43
153.378
153.278
153.175
153.115
153.122
153.186
153.293
153.419
153.532
153.602
153.616
153.577
153.488
153.373
153.298
153.284
153.313
153.366
153.433
153.495
153.528
153.526
153.504
153.487
153.327
153.226
153.098
153.009
152.992
153.029
153.132
153.286
153.451
153.571
153.616
153.594
153.529
153.429
153.327
153.278
153.294
153.35
153.418
153.482
153.526
153.534
153.508
153.469
153.444
153.305
153.183
153.057
152.984
152.969
153.014
153.131
153.283
153.42
153.5
153.509
153.467
153.394
153.308
153.241
153.229
153.277
153.355
153.428
153.482
153.51
153.503
153.466
153.42
153.399
153.398
153.281
153.155
153.069
153.036
153.071
153.155
153.248
153.325
153.352
153.328
153.274
153.206
153.144
153.115
153.139
153.209
153.295
153.363
153.41
153.439
153.442
153.417
153.384
153.365
153.598
153.503
153.375
153.26
153.189
153.163
153.164
153.178
153.183
153.151
153.1
153.035
152.973
152.929
152.92
152.959
153.035
153.121
153.187
153.241
153.299
153.346
153.36
153.341
153.326
153.829
153.739
153.606
153.464
153.333
153.222
153.139
153.088
153.022
152.941
152.861
152.788
152.728
152.69
152.686
152.725
152.795
152.873
152.944
153.018
153.109
153.203
153.246
153.238
153.233
153.979
153.9
153.763
153.587
153.402
153.23
153.084
152.96
152.837
152.722
152.618
152.53
152.46
152.418
152.413
152.449
152.516
152.596
152.677
152.762
152.87
152.982
153.036
153.001
153.01
154.037
153.965
153.813
153.61
153.389
153.177
152.989
152.814
152.649
152.498
152.365
152.252
152.163
152.11
152.1
152.133
152.201
152.285
152.369
152.454
152.553
152.652
152.692
152.642
152.662
154.017
153.938
153.776
153.559
153.318
153.084
152.864
152.657
152.457
152.271
152.102
151.959
151.85
151.787
151.772
151.805
151.871
151.957
152.04
152.119
152.195
152.269
152.3
152.258
152.301
153.934
153.854
153.691
153.469
153.219
152.969
152.73
152.495
152.265
152.044
151.845
151.678
151.558
151.495
151.483
151.515
151.585
151.67
151.76
151.835
151.91
151.979
152.029
152.035
152.087
153.834
153.754
153.594
153.371
153.115
152.857
152.601
152.345
152.088
151.843
151.624
151.449
151.334
151.285
151.28
151.318
151.39
151.489
151.591
151.692
151.787
151.899
152.027
152.115
152.177
153.743
153.667
153.51
153.285
153.023
152.753
152.483
152.209
151.934
151.676
151.453
151.286
151.193
151.162
151.169
151.215
151.297
151.409
151.538
151.667
151.805
151.993
152.252
152.534
152.709
153.684
153.611
153.458
153.232
152.965
152.687
152.408
152.126
151.845
151.585
151.367
151.211
151.133
151.112
151.129
151.181
151.27
151.393
151.54
151.694
151.86
152.098
152.496
153.077
153.926
153.678
153.606
153.455
153.229
152.956
152.668
152.382
152.098
151.818
151.561
151.348
151.194
151.121
151.104
151.122
151.172
151.256
151.375
151.526
151.697
151.882
152.134
152.557
153.202
154.066
153.729
153.656
153.501
153.273
152.993
152.695
152.404
152.123
151.849
151.597
151.387
151.234
151.155
151.134
151.151
151.198
151.275
151.387
151.539
151.721
151.921
152.169
152.56
153.137
153.833
153.816
153.749
153.59
153.359
153.076
152.772
152.477
152.198
151.932
151.686
151.482
151.328
151.24
151.208
151.217
151.254
151.32
151.423
151.568
151.75
151.947
152.175
152.512
153.006
153.591
153.901
153.856
153.707
153.482
153.202
152.898
152.597
152.315
152.054
151.815
151.613
151.46
151.362
151.319
151.316
151.341
151.394
151.484
151.616
151.787
151.968
152.167
152.453
152.87
153.366
153.947
153.937
153.826
153.623
153.359
153.06
152.756
152.468
152.205
151.969
151.769
151.613
151.51
151.457
151.442
151.454
151.493
151.566
151.682
151.833
151.989
152.158
152.398
152.749
153.171
153.96
153.974
153.924
153.764
153.526
153.243
152.943
152.651
152.383
152.145
151.943
151.786
151.677
151.615
151.589
151.588
151.611
151.667
151.764
151.89
152.015
152.157
152.358
152.65
153.006
153.961
153.979
153.982
153.887
153.689
153.431
153.146
152.859
152.589
152.347
152.143
151.981
151.864
151.792
151.753
151.739
151.748
151.788
151.864
151.958
152.052
152.168
152.333
152.572
152.864
153.958
153.973
153.997
153.968
153.833
153.614
153.355
153.083
152.818
152.577
152.367
152.198
152.071
151.986
151.934
151.906
151.902
151.927
151.979
152.039
152.105
152.194
152.322
152.508
152.739
153.947
153.961
153.988
153.99
153.921
153.767
153.55
153.307
153.058
152.823
152.612
152.435
152.296
152.197
152.131
152.089
152.07
152.078
152.103
152.133
152.171
152.228
152.317
152.454
152.624
153.929
153.94
153.964
153.973
153.94
153.851
153.701
153.506
153.288
153.067
152.86
152.678
152.53
152.417
152.336
152.28
152.247
152.234
152.231
152.235
152.244
152.267
152.315
152.403
152.515
153.911
153.919
153.934
153.939
153.917
153.868
153.782
153.651
153.48
153.287
153.092
152.912
152.755
152.631
152.536
152.467
152.419
152.384
152.358
152.337
152.316
152.302
152.31
152.354
152.409
153.892
153.898
153.905
153.9
153.883
153.853
153.803
153.727
153.611
153.458
153.285
153.112
152.957
152.822
152.716
152.636
152.575
152.525
152.479
152.433
152.38
152.331
152.302
152.3
152.301
153.868
153.871
153.872
153.864
153.844
153.824
153.795
153.75
153.674
153.562
153.417
153.262
153.11
152.973
152.861
152.773
152.706
152.646
152.585
152.516
152.435
152.35
152.285
152.236
152.19
153.836
153.837
153.834
153.819
153.798
153.777
153.759
153.733
153.683
153.597
153.48
153.341
153.201
153.071
152.959
152.871
152.802
152.735
152.673
152.582
152.468
152.352
152.254
152.164
152.079
153.791
153.789
153.781
153.763
153.737
153.714
153.697
153.68
153.647
153.584
153.486
153.366
153.237
153.116
153.011
152.929
152.86
152.796
152.735
152.616
152.474
152.34
152.21
152.085
151.966
153.729
153.722
153.707
153.684
153.657
153.631
153.615
153.602
153.58
153.533
153.456
153.352
153.238
153.128
153.033
152.956
152.896
152.844
152.766
152.621
152.458
152.301
152.148
151.999
151.854
153.643
153.63
153.606
153.578
153.547
153.526
153.515
153.508
153.495
153.464
153.404
153.321
153.223
153.122
153.035
152.966
152.916
152.876
152.765
152.599
152.422
152.248
152.079
151.91
151.742
153.537
153.516
153.478
153.437
153.407
153.391
153.393
153.4
153.4
153.386
153.348
153.285
153.202
153.11
153.025
152.965
152.928
152.883
152.743
152.562
152.374
152.187
152.002
151.819
151.631
153.402
153.375
153.32
153.27
153.236
153.234
153.256
153.282
153.301
153.307
153.29
153.246
153.174
153.09
153.017
152.968
152.944
152.865
152.705
152.514
152.316
152.119
151.924
151.726
151.525
153.234
153.201
153.134
153.074
153.043
153.057
153.105
153.159
153.202
153.23
153.232
153.199
153.138
153.068
153.015
152.991
152.953
152.834
152.657
152.456
152.249
152.046
151.843
151.636
151.421
153.027
152.986
152.909
152.843
152.815
152.855
152.938
153.026
153.098
153.144
153.159
153.141
153.101
153.06
153.043
153.026
152.946
152.794
152.598
152.388
152.179
151.972
151.762
151.546
151.323
152.777
152.722
152.634
152.556
152.541
152.611
152.741
152.871
152.973
153.036
153.067
153.072
153.071
153.08
153.084
153.037
152.908
152.726
152.519
152.31
152.103
151.894
151.679
151.459
151.229
152.486
152.414
152.307
152.221
152.211
152.316
152.501
152.681
152.816
152.902
152.954
152.998
153.042
153.078
153.057
152.959
152.806
152.621
152.423
152.224
152.021
151.811
151.596
151.371
151.139
152.177
152.087
151.96
151.864
151.849
151.983
152.225
152.46
152.635
152.751
152.835
152.904
152.963
152.975
152.919
152.813
152.671
152.501
152.32
152.131
151.932
151.726
151.51
151.287
151.051
151.898
151.796
151.646
151.552
151.52
151.661
151.949
152.237
152.449
152.596
152.701
152.779
152.82
152.811
152.756
152.662
152.532
152.381
152.213
152.032
151.839
151.637
151.425
151.202
150.969
151.706
151.596
151.437
151.352
151.312
151.431
151.726
152.044
152.279
152.445
152.562
152.636
152.667
152.656
152.605
152.516
152.399
152.26
152.102
151.929
151.744
151.547
151.339
151.122
150.89
151.657
151.544
151.382
151.299
151.282
151.356
151.603
151.908
152.147
152.317
152.431
152.498
152.524
152.51
152.459
152.377
152.269
152.138
151.989
151.825
151.647
151.457
151.256
151.041
150.816
151.764
151.659
151.52
151.441
151.432
151.45
151.599
151.85
152.065
152.219
152.318
152.372
152.389
152.371
152.321
152.244
152.142
152.019
151.878
151.722
151.553
151.37
151.174
150.967
150.746
151.998
151.911
151.817
151.744
151.728
151.667
151.7
151.871
152.034
152.153
152.228
152.265
152.269
152.245
152.195
152.12
152.023
151.907
151.773
151.624
151.462
151.286
151.098
150.895
150.682
152.283
152.219
152.171
152.117
152.056
151.91
151.858
151.948
152.045
152.119
152.162
152.177
152.168
152.136
152.083
152.008
151.914
151.802
151.674
151.532
151.376
151.207
151.024
150.831
150.623
152.534
152.491
152.447
152.398
152.287
152.105
152.025
152.046
152.081
152.105
152.115
152.108
152.084
152.042
151.984
151.908
151.816
151.707
151.584
151.446
151.296
151.133
150.958
150.769
150.57
152.688
152.674
152.627
152.564
152.434
152.274
152.184
152.141
152.121
152.102
152.08
152.052
152.013
151.962
151.898
151.82
151.727
151.621
151.501
151.368
151.222
151.065
150.895
150.715
150.522
152.729
152.748
152.741
152.683
152.56
152.424
152.311
152.21
152.147
152.096
152.051
152.005
151.954
151.894
151.824
151.742
151.649
151.543
151.426
151.296
151.155
151.003
150.84
150.665
150.481
152.696
152.722
152.755
152.722
152.63
152.51
152.373
152.241
152.157
152.086
152.024
151.964
151.902
151.834
151.758
151.674
151.579
151.474
151.358
151.232
151.095
150.948
150.79
150.623
150.444
152.636
152.648
152.677
152.677
152.623
152.523
152.379
152.247
152.151
152.07
151.997
151.927
151.855
151.781
151.7
151.613
151.517
151.412
151.298
151.174
151.041
150.898
150.747
150.584
150.414
152.568
152.572
152.589
152.602
152.576
152.49
152.35
152.232
152.134
152.047
151.967
151.89
151.813
151.733
151.648
151.558
151.461
151.357
151.244
151.123
150.993
150.855
150.707
150.553
150.388
152.51
152.514
152.518
152.532
152.511
152.427
152.304
152.204
152.108
152.018
151.935
151.854
151.772
151.688
151.601
151.509
151.411
151.307
151.196
151.077
150.95
150.816
150.675
150.524
150.367
152.473
152.479
152.478
152.479
152.455
152.359
152.253
152.167
152.076
151.987
151.902
151.817
151.733
151.647
151.558
151.465
151.366
151.263
151.153
151.036
150.913
150.783
150.645
150.502
150.35
152.454
152.462
152.458
152.443
152.399
152.301
152.213
152.128
152.04
151.953
151.867
151.782
151.696
151.608
151.518
151.424
151.326
151.223
151.114
151
150.88
150.753
150.621
150.481
150.337
152.438
152.448
152.442
152.411
152.342
152.256
152.176
152.09
152.004
151.918
151.833
151.746
151.66
151.571
151.48
151.386
151.288
151.186
151.079
150.968
150.85
150.728
150.599
150.466
150.327
152.418
152.426
152.418
152.378
152.289
152.216
152.137
152.052
151.968
151.883
151.798
151.712
151.625
151.536
151.445
151.351
151.254
151.153
151.048
150.939
150.824
150.705
150.582
150.453
150.32
152.397
152.403
152.391
152.338
152.246
152.177
152.098
152.015
151.932
151.848
151.763
151.677
151.59
151.502
151.411
151.318
151.222
151.123
151.02
150.913
150.802
150.686
150.566
150.443
150.315
152.376
152.383
152.365
152.295
152.211
152.138
152.059
151.978
151.896
151.813
151.729
151.644
151.557
151.469
151.379
151.287
151.192
151.094
150.993
150.889
150.781
150.669
150.554
150.435
150.313
152.357
152.363
152.338
152.252
152.182
152.102
152.021
151.941
151.86
151.778
151.695
151.61
151.524
151.437
151.348
151.257
151.164
151.068
150.969
150.868
150.763
150.655
150.543
150.429
150.311
152.336
152.342
152.306
152.21
152.144
152.065
151.984
151.905
151.825
151.743
151.66
151.577
151.492
151.406
151.318
151.229
151.137
151.043
150.947
150.848
150.746
150.642
150.535
150.424
150.312
152.313
152.318
152.265
152.171
152.105
152.028
151.948
151.869
151.789
151.708
151.627
151.544
151.46
151.375
151.289
151.201
151.112
151.02
150.926
150.83
150.731
150.63
150.527
150.422
150.314
152.288
152.293
152.223
152.141
152.067
151.991
151.912
151.833
151.753
151.674
151.593
151.512
151.429
151.345
151.261
151.175
151.087
150.998
150.907
150.813
150.718
150.62
150.521
150.419
150.317
152.266
152.27
152.183
152.113
152.031
151.953
151.876
151.796
151.718
151.639
151.56
151.479
151.398
151.316
151.233
151.149
151.064
150.977
150.888
150.798
150.706
150.612
150.516
150.419
150.32
152.247
152.247
152.142
152.078
151.994
151.915
151.838
151.76
151.682
151.604
151.526
151.447
151.368
151.288
151.207
151.125
151.042
150.957
150.871
150.784
150.695
150.604
150.512
150.419
150.324
152.232
152.22
152.103
152.039
151.956
151.875
151.799
151.722
151.645
151.568
151.492
151.415
151.338
151.259
151.181
151.101
151.02
150.938
150.855
150.77
150.684
150.597
150.509
150.42
150.329
152.213
152.185
152.066
151.998
151.915
151.835
151.758
151.682
151.607
151.532
151.458
151.383
151.307
151.232
151.155
151.078
150.999
150.92
150.839
150.758
150.675
150.591
150.506
150.42
150.334
152.183
152.141
152.028
151.952
151.871
151.792
151.716
151.642
151.569
151.496
151.423
151.35
151.277
151.204
151.13
151.055
150.979
150.902
150.824
150.746
150.666
150.585
150.504
150.422
150.338
152.139
152.086
151.984
151.903
151.824
151.747
151.673
151.6
151.529
151.459
151.388
151.318
151.247
151.176
151.104
151.032
150.959
150.885
150.81
150.734
150.657
150.58
150.502
150.422
150.343
152.085
152.02
151.932
151.849
151.774
151.699
151.628
151.558
151.489
151.421
151.354
151.285
151.217
151.149
151.08
151.01
150.939
150.868
150.796
150.723
150.649
150.575
150.499
150.424
150.347
152.015
151.944
151.869
151.792
151.72
151.65
151.582
151.515
151.449
151.384
151.319
151.254
151.188
151.122
151.055
150.988
150.92
150.851
150.782
150.712
150.641
150.569
150.497
150.425
150.352
151.932
151.864
151.801
151.731
151.666
151.6
151.536
151.472
151.41
151.347
151.285
151.222
151.159
151.096
151.032
150.967
150.902
150.836
150.769
150.701
150.633
150.565
150.495
150.426
150.356
151.844
151.785
151.732
151.67
151.61
151.55
151.49
151.43
151.371
151.312
151.252
151.192
151.132
151.071
151.009
150.947
150.884
150.821
150.757
150.692
150.626
150.561
150.494
150.428
150.361
151.757
151.708
151.663
151.609
151.556
151.5
151.445
151.389
151.333
151.277
151.22
151.163
151.105
151.047
150.988
150.928
150.868
150.807
150.745
150.683
150.62
150.557
150.493
150.43
150.366
151.674
151.634
151.596
151.55
151.502
151.452
151.401
151.349
151.297
151.244
151.19
151.135
151.08
151.024
150.967
150.91
150.852
150.794
150.735
150.675
150.615
150.554
150.494
150.432
150.372
151.597
151.565
151.533
151.492
151.451
151.405
151.359
151.311
151.262
151.212
151.161
151.109
151.056
151.003
150.948
150.893
150.838
150.782
150.725
150.668
150.61
150.552
150.493
150.435
150.377
151.527
151.501
151.474
151.438
151.401
151.36
151.317
151.273
151.227
151.18
151.132
151.083
151.033
150.982
150.93
150.877
150.824
150.77
150.716
150.661
150.605
150.549
150.494
150.437
150.382
151.464
151.441
151.418
151.387
151.354
151.316
151.277
151.236
151.194
151.15
151.105
151.058
151.01
150.962
150.912
150.862
150.811
150.759
150.707
150.654
150.601
150.547
150.493
150.44
150.386
151.406
151.387
151.367
151.339
151.309
151.275
151.239
151.201
151.161
151.12
151.077
151.034
150.988
150.942
150.895
150.847
150.798
150.748
150.698
150.647
150.596
150.545
150.493
150.441
150.39
151.355
151.338
151.32
151.294
151.267
151.236
151.203
151.167
151.13
151.092
151.052
151.01
150.967
150.923
150.878
150.832
150.785
150.738
150.69
150.641
150.591
150.542
150.492
150.442
150.393
151.309
151.294
151.278
151.254
151.23
151.201
151.17
151.137
151.102
151.066
151.028
150.989
150.948
150.906
150.863
150.819
150.774
150.728
150.681
150.634
150.587
150.539
150.491
150.443
150.396
151.268
151.255
151.241
151.219
151.196
151.169
151.141
151.11
151.077
151.042
151.007
150.969
150.93
150.89
150.848
150.806
150.763
150.719
150.674
150.629
150.583
150.537
150.491
150.445
150.399
151.233
151.221
151.208
151.188
151.168
151.143
151.116
151.086
151.055
151.023
150.988
150.952
150.915
150.876
150.836
150.795
150.753
150.711
150.668
150.624
150.58
150.535
150.491
150.446
150.402
151.202
151.192
151.181
151.162
151.144
151.12
151.095
151.067
151.037
151.006
150.973
150.938
150.902
150.864
150.826
150.786
150.746
150.705
150.663
150.62
150.578
150.535
150.492
150.449
150.406
151.177
151.167
151.158
151.141
151.123
151.101
151.077
151.051
151.022
150.992
150.96
150.926
150.891
150.854
150.817
150.778
150.739
150.699
150.659
150.618
150.576
150.535
150.493
150.452
150.41
151.155
151.147
151.139
151.123
151.106
151.085
151.062
151.037
151.009
150.98
150.948
150.916
150.881
150.846
150.809
150.772
150.734
150.695
150.655
150.616
150.575
150.535
150.495
150.454
150.414
151.138
151.13
151.123
151.107
151.092
151.071
151.049
151.024
150.998
150.969
150.938
150.906
150.873
150.838
150.803
150.766
150.729
150.691
150.653
150.614
150.575
150.535
150.496
150.457
150.418
151.125
151.117
151.11
151.094
151.079
151.059
151.038
151.013
150.987
150.959
150.929
150.898
150.865
150.831
150.797
150.761
150.724
150.687
150.65
150.612
150.574
150.535
150.497
150.459
150.421
151.115
151.107
151.1
151.085
151.069
151.049
151.028
151.004
150.978
150.951
150.921
150.89
150.858
150.825
150.791
150.756
150.72
150.684
150.647
150.61
150.573
150.535
150.497
150.46
150.423
151.111
151.102
151.095
151.078
151.062
151.042
151.02
150.997
150.971
150.944
150.915
150.884
150.853
150.82
150.787
150.752
150.717
150.682
150.645
150.609
150.572
150.535
150.498
150.462
150.425
151.111
151.101
151.093
151.075
151.058
151.038
151.016
150.992
150.966
150.939
150.91
150.88
150.849
150.817
150.784
150.75
150.715
150.68
150.644
150.608
150.572
150.535
150.499
150.463
150.427
151.113
151.102
151.095
151.076
151.058
151.037
151.014
150.99
150.964
150.936
150.908
150.878
150.847
150.815
150.782
150.748
150.714
150.679
150.644
150.608
150.572
150.536
150.501
150.465
150.43
151.123
151.108
151.102
151.081
151.06
151.038
151.014
150.989
150.963
150.935
150.906
150.877
150.846
150.814
150.781
150.748
150.714
150.679
150.644
150.609
150.573
150.538
150.502
150.467
150.432
151.164
151.13
151.114
151.089
151.064
151.04
151.015
150.989
150.963
150.935
150.906
150.876
150.846
150.814
150.781
150.748
150.714
150.68
150.645
150.61
150.574
150.539
150.504
150.469
150.434
151.241
151.163
151.122
151.092
151.066
151.041
151.015
150.99
150.963
150.935
150.906
150.876
150.846
150.814
150.781
150.748
150.714
150.68
150.645
150.61
150.575
150.54
150.504
150.469
150.434
155.65
155.647
155.64
155.632
155.625
155.62
155.615
155.61
155.602
155.59
155.575
155.558
155.543
155.531
155.521
155.511
155.493
155.465
155.429
155.394
155.374
155.371
155.378
155.384
155.387
155.646
155.634
155.624
155.62
155.619
155.621
155.62
155.613
155.601
155.582
155.558
155.535
155.516
155.503
155.495
155.486
155.473
155.45
155.416
155.382
155.36
155.355
155.362
155.374
155.38
155.658
155.642
155.629
155.62
155.615
155.608
155.592
155.567
155.533
155.494
155.456
155.426
155.405
155.392
155.387
155.388
155.39
155.388
155.379
155.364
155.352
155.351
155.358
155.367
155.372
155.687
155.674
155.659
155.642
155.622
155.59
155.546
155.493
155.436
155.379
155.325
155.28
155.247
155.227
155.222
155.229
155.247
155.271
155.295
155.316
155.334
155.35
155.362
155.367
155.368
155.722
155.714
155.701
155.68
155.641
155.583
155.509
155.429
155.347
155.267
155.192
155.128
155.082
155.055
155.047
155.056
155.081
155.118
155.166
155.221
155.277
155.327
155.359
155.368
155.365
155.752
155.748
155.741
155.718
155.667
155.588
155.491
155.385
155.279
155.174
155.077
154.993
154.932
154.895
154.881
154.888
154.915
154.961
155.025
155.101
155.183
155.266
155.335
155.365
155.361
155.773
155.774
155.773
155.756
155.7
155.608
155.492
155.366
155.236
155.107
154.986
154.879
154.795
154.741
154.716
154.718
154.748
154.806
154.885
154.981
155.083
155.185
155.28
155.348
155.358
155.783
155.787
155.797
155.792
155.744
155.647
155.516
155.372
155.221
155.069
154.922
154.788
154.677
154.598
154.555
154.549
154.584
154.656
154.757
154.874
154.995
155.109
155.21
155.299
155.337
155.78
155.787
155.803
155.813
155.788
155.702
155.568
155.408
155.238
155.066
154.896
154.738
154.603
154.502
154.447
154.434
154.466
154.543
154.656
154.791
154.928
155.05
155.148
155.229
155.282
155.767
155.774
155.79
155.809
155.807
155.755
155.639
155.477
155.298
155.11
154.924
154.749
154.598
154.485
154.426
154.412
154.433
154.498
154.607
154.746
154.89
155.017
155.108
155.174
155.219
155.752
155.76
155.773
155.789
155.8
155.78
155.7
155.561
155.387
155.198
155.007
154.827
154.669
154.545
154.469
154.441
154.454
154.51
154.613
154.748
154.891
155.015
155.099
155.15
155.182
155.741
155.749
155.759
155.768
155.778
155.778
155.736
155.635
155.482
155.305
155.117
154.937
154.778
154.65
154.563
154.52
154.521
154.569
154.664
154.794
154.932
155.052
155.131
155.166
155.19
155.731
155.738
155.745
155.749
155.755
155.758
155.744
155.686
155.569
155.411
155.235
155.057
154.896
154.765
154.673
154.625
154.623
154.668
154.759
154.881
155.013
155.128
155.201
155.231
155.251
155.72
155.727
155.73
155.729
155.731
155.733
155.732
155.707
155.633
155.508
155.351
155.184
155.026
154.896
154.803
154.755
154.754
154.798
154.883
154.997
155.119
155.227
155.299
155.334
155.354
155.706
155.712
155.714
155.708
155.706
155.708
155.71
155.704
155.664
155.577
155.451
155.305
155.159
155.035
154.947
154.898
154.896
154.939
155.016
155.117
155.226
155.327
155.402
155.45
155.48
155.689
155.695
155.698
155.692
155.687
155.686
155.686
155.684
155.665
155.611
155.518
155.398
155.271
155.158
155.073
155.024
155.019
155.055
155.123
155.211
155.308
155.403
155.482
155.544
155.585
155.678
155.681
155.687
155.682
155.675
155.669
155.664
155.659
155.647
155.611
155.544
155.448
155.339
155.236
155.157
155.109
155.099
155.128
155.186
155.263
155.35
155.437
155.514
155.578
155.631
155.687
155.689
155.686
155.675
155.663
155.652
155.643
155.633
155.618
155.59
155.536
155.457
155.363
155.271
155.195
155.149
155.135
155.156
155.203
155.27
155.346
155.425
155.499
155.557
155.606
155.734
155.719
155.68
155.651
155.632
155.618
155.608
155.597
155.58
155.553
155.507
155.439
155.356
155.27
155.198
155.15
155.133
155.146
155.185
155.239
155.303
155.371
155.443
155.497
155.527
155.717
155.684
155.614
155.581
155.564
155.553
155.544
155.535
155.519
155.494
155.454
155.395
155.321
155.242
155.171
155.12
155.098
155.104
155.132
155.178
155.229
155.284
155.349
155.41
155.419
155.285
155.418
155.446
155.46
155.467
155.468
155.463
155.453
155.437
155.411
155.373
155.32
155.255
155.182
155.114
155.06
155.031
155.029
155.05
155.084
155.126
155.17
155.224
155.287
155.306
154.872
155.131
155.236
155.295
155.328
155.344
155.345
155.335
155.318
155.291
155.254
155.207
155.147
155.079
155.013
154.959
154.925
154.914
154.924
154.949
154.983
155.022
155.071
155.129
155.166
154.452
154.802
154.987
155.092
155.152
155.184
155.195
155.19
155.175
155.151
155.119
155.079
155.024
154.957
154.884
154.817
154.769
154.739
154.731
154.741
154.767
154.807
154.858
154.914
154.944
154.12
154.488
154.717
154.857
154.94
154.987
155.007
155.009
154.998
154.976
154.945
154.903
154.848
154.778
154.696
154.611
154.535
154.476
154.437
154.423
154.434
154.47
154.525
154.58
154.599
153.831
154.19
154.436
154.595
154.693
154.75
154.776
154.781
154.768
154.742
154.701
154.643
154.568
154.476
154.371
154.257
154.145
154.044
153.963
153.91
153.89
153.908
153.953
153.995
153.966
153.579
153.91
154.151
154.313
154.416
154.475
154.501
154.501
154.48
154.439
154.378
154.293
154.182
154.045
153.885
153.71
153.528
153.351
153.192
153.062
152.973
152.931
152.933
152.952
152.934
153.355
153.646
153.865
154.016
154.113
154.167
154.185
154.175
154.139
154.076
153.986
153.866
153.711
153.517
153.284
153.018
152.724
152.416
152.105
151.809
151.539
151.31
151.113
150.933
150.622
153.152
153.396
153.581
153.711
153.793
153.833
153.838
153.811
153.753
153.663
153.539
153.375
153.167
152.909
152.593
152.219
151.785
151.293
150.749
150.158
149.525
148.863
148.14
147.428
146.467
152.965
153.156
153.302
153.402
153.46
153.48
153.465
153.415
153.329
153.206
153.04
152.825
152.554
152.218
151.806
151.306
150.706
149.99
149.135
148.117
146.88
145.377
143.33
140.771
135.722
152.789
152.926
153.028
153.093
153.122
153.116
153.074
152.994
152.874
152.71
152.496
152.221
151.878
151.452
150.925
150.278
149.481
148.496
147.259
145.684
143.588
140.837
136.462
131.573
114.123
152.62
152.703
152.761
152.789
152.785
152.746
152.672
152.557
152.398
152.188
151.918
151.579
151.154
150.627
149.973
149.16
148.141
146.849
145.169
142.94
139.729
135.117
126.001
110.741
54.2132
152.456
152.489
152.504
152.493
152.452
152.378
152.267
152.113
151.91
151.65
151.322
150.91
150.4
149.766
148.976
147.988
146.737
145.128
143.005
140.13
135.966
129.813
119.267
102.137
73.7027
152.297
152.285
152.257
152.207
152.128
152.016
151.866
151.67
151.42
151.107
150.717
150.234
149.634
148.891
147.965
146.802
145.326
143.422
140.913
137.534
132.841
126.173
116.633
102.522
85.6462
152.144
152.09
152.022
151.932
151.815
151.664
151.473
151.234
150.938
150.571
150.119
149.562
148.876
148.026
146.969
145.643
143.96
141.795
138.968
135.215
130.155
123.251
113.86
100.83
84.2671
151.994
151.902
151.796
151.669
151.515
151.326
151.095
150.814
150.47
150.052
149.54
148.915
148.146
147.197
146.02
144.546
142.681
140.295
137.203
133.147
127.778
120.622
111.127
98.56
82.7896
151.848
151.722
151.582
151.42
151.23
151.005
150.737
150.415
150.028
149.56
148.994
148.304
147.462
146.427
145.145
143.545
141.528
138.958
135.649
131.345
125.712
118.315
108.682
96.2712
80.9745
151.706
151.55
151.379
151.186
150.964
150.706
150.402
150.044
149.617
149.106
148.49
147.747
146.842
145.734
144.368
142.668
140.532
137.82
134.34
129.833
123.959
116.274
106.298
93.4471
77.7013
151.569
151.387
151.188
150.968
150.717
150.43
150.096
149.705
149.244
148.695
148.041
147.252
146.299
145.137
143.71
141.939
139.72
136.91
133.306
128.645
122.554
114.55
104.086
90.2843
73.241
151.438
151.234
151.012
150.768
150.493
150.18
149.82
149.402
148.913
148.336
147.65
146.831
145.845
144.65
143.187
141.38
139.12
136.261
132.585
127.817
121.502
113.146
101.965
86.6848
67.5835
151.314
151.092
150.851
150.587
150.291
149.958
149.577
149.138
148.627
148.03
147.325
146.488
145.487
144.281
142.813
141.008
138.758
135.917
132.25
127.462
120.941
112.167
99.417
81.7272
57.7746
151.198
150.961
150.704
150.424
150.112
149.763
149.366
148.912
148.389
147.78
147.066
146.226
145.227
144.033
142.591
140.83
138.651
135.913
132.396
127.79
121.421
112.616
98.2407
77.7707
39.6333
151.089
150.84
150.572
150.28
149.956
149.595
149.188
148.726
148.196
147.585
146.874
146.042
145.065
143.904
142.517
140.839
138.788
136.243
133.023
128.872
123.281
115.63
103.232
85.0149
34.4315
150.987
150.731
150.454
150.153
149.822
149.454
149.043
148.578
148.049
147.443
146.744
145.935
144.991
143.884
142.574
141.012
139.131
136.839
134.011
130.467
125.934
120.074
112.077
102.273
82.6156
150.892
150.631
150.349
150.044
149.709
149.339
148.927
148.465
147.943
147.35
146.673
145.894
144.997
143.956
142.741
141.314
139.627
137.616
135.202
132.286
128.732
124.397
119.075
112.776
104.963
150.804
150.54
150.257
149.95
149.615
149.247
148.839
148.384
147.875
147.301
146.651
145.913
145.07
144.104
142.993
141.71
140.222
138.49
136.474
134.123
131.401
128.294
124.855
121.358
118.388
150.722
150.458
150.176
149.871
149.539
149.176
148.776
148.333
147.841
147.291
146.674
145.979
145.196
144.31
143.306
142.166
140.869
139.397
137.73
135.859
133.783
131.543
129.237
127.101
125.517
150.646
150.385
150.106
149.805
149.479
149.124
148.735
148.307
147.835
147.312
146.731
146.084
145.362
144.557
143.657
142.653
141.533
140.29
138.923
137.435
135.853
134.227
132.659
131.326
130.46
150.576
150.32
150.046
149.751
149.433
149.088
148.713
148.303
147.854
147.36
146.817
146.217
145.557
144.83
144.029
143.149
142.187
141.143
140.021
138.837
137.62
136.42
135.318
134.431
133.889
150.512
150.262
149.995
149.709
149.4
149.068
148.708
148.317
147.892
147.429
146.923
146.372
145.771
145.117
144.408
143.64