/*--------------------------------*- C++ -*----------------------------------*\
  =========                 |
  \\      /  F ield         | OpenFOAM: The Open Source CFD Toolbox
   \\    /   O peration     | Website:  https://openfoam.org
    \\  /    A nd           | Version:  13
     \\/     M anipulation  |
\*---------------------------------------------------------------------------*/
FoamFile
{
    format      ascii;
    class       surfaceScalarField;
    location    "12";
    object      phi;
}
// * * * * * * * * * * * * * * * * * * * * * * * * * * * * * * * * * * * * * //

dimensions      [0 3 -1 0 0 0 0];

internalField   nonuniform List<scalar> 
12590
(
2.43188e-13
-2.43187e-13
6.26223e-13
-3.83033e-13
9.63827e-13
-3.37602e-13
1.24711e-12
-2.83276e-13
1.48192e-12
-2.34814e-13
1.66394e-12
-1.82018e-13
1.77479e-12
-1.10848e-13
1.79874e-12
-2.39473e-14
1.72504e-12
7.37085e-14
1.54984e-12
1.75196e-13
1.2757e-12
2.74145e-13
9.15933e-13
3.59769e-13
4.91315e-13
4.2462e-13
2.761e-14
4.63708e-13
-4.46362e-13
4.73975e-13
-8.96449e-13
4.5009e-13
-1.29841e-12
4.01966e-13
-1.6863e-12
3.87893e-13
-2.02113e-12
3.34834e-13
-2.33231e-12
3.11185e-13
-2.61336e-12
2.81051e-13
-2.75782e-12
1.44465e-13
-2.64072e-12
-1.17095e-13
-1.62612e-12
-1.01459e-12
-1.62612e-12
2.88735e-13
-5.3192e-13
7.39294e-13
-8.33589e-13
1.18603e-12
-7.84336e-13
1.62773e-12
-7.24971e-13
2.0964e-12
-7.03483e-13
2.5677e-12
-6.53307e-13
3.02171e-12
-5.64859e-13
3.44172e-12
-4.43958e-13
3.81232e-12
-2.96887e-13
4.12068e-12
-1.33156e-13
4.36274e-12
3.20864e-14
4.52944e-12
1.93076e-13
4.61695e-12
3.37106e-13
4.62718e-12
4.53485e-13
4.56371e-12
5.37447e-13
4.42401e-12
5.89797e-13
4.20823e-12
6.17747e-13
3.95579e-12
6.40343e-13
3.63012e-12
6.60502e-13
3.23761e-12
7.03705e-13
2.76535e-12
7.53313e-13
2.21092e-12
6.98904e-13
1.53039e-12
5.63434e-13
6.40759e-13
-1.24949e-13
-9.8536e-13
3.85206e-13
-9.17123e-13
9.33769e-13
-1.38215e-12
1.49716e-12
-1.34773e-12
2.09747e-12
-1.32528e-12
2.73366e-12
-1.33967e-12
3.37917e-12
-1.29882e-12
4.00884e-12
-1.19453e-12
4.59289e-12
-1.028e-12
5.10339e-12
-8.07389e-13
5.5183e-12
-5.48054e-13
5.80871e-12
-2.58322e-13
5.95738e-12
4.4411e-14
5.95049e-12
3.43997e-13
5.7813e-12
6.22676e-13
5.45463e-12
8.64126e-13
4.98528e-12
1.05915e-12
4.40223e-12
1.20081e-12
3.76491e-12
1.27767e-12
3.05808e-12
1.36734e-12
2.37403e-12
1.38776e-12
1.73132e-12
1.39603e-12
1.16284e-12
1.2674e-12
6.89442e-13
1.03684e-12
2.33129e-13
3.31372e-13
-7.52231e-13
4.78725e-13
-1.39585e-12
1.09103e-12
-1.99445e-12
1.71779e-12
-1.97448e-12
2.39192e-12
-1.9994e-12
3.11097e-12
-2.05872e-12
3.83042e-12
-2.01826e-12
4.52065e-12
-1.88475e-12
5.15436e-12
-1.66171e-12
5.70679e-12
-1.35982e-12
6.14329e-12
-9.84548e-13
6.43756e-12
-5.52583e-13
6.56179e-12
-7.98142e-14
6.49403e-12
4.11756e-13
6.2331e-12
8.83606e-13
5.77966e-12
1.31758e-12
5.15215e-12
1.68666e-12
4.39326e-12
1.95969e-12
3.53602e-12
2.13492e-12
2.70197e-12
2.20139e-12
1.89118e-12
2.19856e-12
1.1925e-12
2.09472e-12
6.54209e-13
1.80569e-12
3.18697e-13
1.37236e-12
8.57439e-14
5.64333e-13
-6.66486e-13
5.44537e-13
-1.94038e-12
1.17425e-12
-2.62416e-12
1.80773e-12
-2.60795e-12
2.48425e-12
-2.67592e-12
3.20219e-12
-2.77666e-12
3.91432e-12
-2.73038e-12
4.58675e-12
-2.55718e-12
5.19852e-12
-2.27348e-12
5.72194e-12
-1.88323e-12
6.13828e-12
-1.40089e-12
6.42628e-12
-8.4058e-13
6.56359e-12
-2.17118e-13
6.52259e-12
4.52766e-13
6.25695e-12
1.14925e-12
5.76454e-12
1.80999e-12
5.08768e-12
2.36352e-12
4.26482e-12
2.78257e-12
3.36298e-12
3.03676e-12
2.44361e-12
3.12076e-12
1.60716e-12
3.03502e-12
9.13242e-13
2.78864e-12
4.10098e-13
2.30885e-12
1.45939e-13
1.63653e-12
5.23295e-15
7.05047e-13
-6.61252e-13
5.84623e-13
-2.525e-12
1.19696e-12
-3.2365e-12
1.80047e-12
-3.21146e-12
2.44103e-12
-3.31648e-12
3.09262e-12
-3.42825e-12
3.73674e-12
-3.3745e-12
4.35106e-12
-3.17149e-12
4.90551e-12
-2.82793e-12
5.3829e-12
-2.36062e-12
5.76463e-12
-1.78261e-12
6.02842e-12
-1.10436e-12
6.15215e-12
-3.40846e-13
6.11897e-12
4.85949e-13
5.92711e-12
1.34112e-12
5.54676e-12
2.19034e-12
4.92064e-12
2.98965e-12
4.13161e-12
3.5716e-12
3.24526e-12
3.92311e-12
2.33607e-12
4.02996e-12
1.49014e-12
3.88096e-12
8.1225e-13
3.46653e-12
2.8468e-13
2.83642e-12
3.00672e-14
1.89115e-12
-7.13506e-14
8.06473e-13
-7.32601e-13
6.0434e-13
-3.12934e-12
1.17531e-12
-3.80746e-12
1.72375e-12
-3.75989e-12
2.30094e-12
-3.89367e-12
2.87635e-12
-4.00366e-12
3.44016e-12
-3.93831e-12
3.96652e-12
-3.69784e-12
4.44299e-12
-3.3044e-12
4.86042e-12
-2.77806e-12
5.20802e-12
-2.13021e-12
5.4705e-12
-1.36683e-12
5.62791e-12
-4.98248e-13
5.65817e-12
4.55691e-13
5.53972e-12
1.45957e-12
5.26762e-12
2.46244e-12
4.84588e-12
3.41139e-12
4.17074e-12
4.24675e-12
3.35784e-12
4.73602e-12
2.49095e-12
4.89686e-12
1.64462e-12
4.72729e-12
9.22207e-13
4.18895e-12
3.23426e-13
3.43521e-12
2.44903e-14
2.19009e-12
-9.76513e-14
9.28622e-13
-8.30251e-13
6.08797e-13
-3.73813e-12
1.12687e-12
-4.32553e-12
1.60816e-12
-4.24118e-12
2.14248e-12
-4.42799e-12
2.64468e-12
-4.50585e-12
3.12454e-12
-4.41817e-12
3.57026e-12
-4.14357e-12
3.97997e-12
-3.7141e-12
4.3538e-12
-3.15189e-12
4.68935e-12
-2.46575e-12
4.97949e-12
-1.65697e-12
5.20781e-12
-7.26567e-13
5.35021e-12
3.13294e-13
5.37701e-12
1.43278e-12
5.26039e-12
2.57905e-12
4.9853e-12
3.68649e-12
4.55277e-12
4.67928e-12
3.87075e-12
5.41804e-12
3.04591e-12
5.72171e-12
2.1646e-12
5.6086e-12
1.26424e-12
5.08931e-12
6.77587e-13
4.02187e-12
1.83061e-13
2.68462e-12
-5.72196e-14
1.16891e-12
-8.8747e-13
6.06151e-13
-4.34428e-12
1.07853e-12
-4.7979e-12
1.51454e-12
-4.67719e-12
1.9853e-12
-4.89876e-12
2.47078e-12
-4.99133e-12
2.90575e-12
-4.85313e-12
3.3146e-12
-4.55242e-12
3.70398e-12
-4.10347e-12
4.08373e-12
-3.53163e-12
4.45748e-12
-2.83951e-12
4.82123e-12
-2.02072e-12
5.16526e-12
-1.07059e-12
5.46744e-12
1.11109e-14
5.6927e-12
1.20752e-12
5.7957e-12
2.47606e-12
5.73391e-12
3.74829e-12
5.47376e-12
4.93943e-12
4.96869e-12
5.92311e-12
4.19325e-12
6.49715e-12
3.23102e-12
6.57083e-12
2.18754e-12
6.1328e-12
1.26786e-12
4.94157e-12
4.71122e-13
3.48136e-12
3.38067e-14
1.60623e-12
-8.53662e-13
5.99122e-13
-4.9434e-12
1.04281e-12
-5.24159e-12
1.46341e-12
-5.09779e-12
1.91854e-12
-5.35389e-12
2.41163e-12
-5.48442e-12
2.90428e-12
-5.34579e-12
3.34879e-12
-4.99692e-12
3.80764e-12
-4.56233e-12
4.28534e-12
-4.00933e-12
4.7828e-12
-3.33698e-12
5.2944e-12
-2.53232e-12
5.81566e-12
-1.59185e-12
6.32708e-12
-5.00307e-13
6.79202e-12
7.42583e-13
7.15202e-12
2.11605e-12
7.33602e-12
3.56429e-12
7.29355e-12
4.98189e-12
6.92854e-12
6.28812e-12
6.15224e-12
7.27345e-12
5.01441e-12
7.70866e-12
3.6551e-12
7.49211e-12
2.10541e-12
6.49126e-12
1.06219e-12
4.52459e-12
2.2441e-13
2.44401e-12
-6.29252e-13
5.91121e-13
-5.53452e-12
1.03493e-12
-5.68539e-12
1.48959e-12
-5.55246e-12
2.00674e-12
-5.87103e-12
2.57906e-12
-6.05674e-12
3.19818e-12
-5.96491e-12
3.81577e-12
-5.61452e-12
4.48324e-12
-5.2298e-12
5.20339e-12
-4.72949e-12
5.96512e-12
-4.09871e-12
6.75181e-12
-3.31901e-12
7.57034e-12
-2.41039e-12
8.38607e-12
-1.31603e-12
9.16208e-12
-3.34371e-14
9.83868e-12
1.43945e-12
1.02982e-11
3.10481e-12
1.03794e-11
4.90067e-12
1.00117e-11
6.65581e-12
9.15656e-12
8.12858e-12
7.7494e-12
9.11582e-12
5.88174e-12
9.35977e-12
3.81193e-12
8.56107e-12
1.90995e-12
6.42657e-12
5.18558e-13
3.8354e-12
-1.10696e-13
5.84042e-13
-6.11856e-12
1.06525e-12
-6.16659e-12
1.61717e-12
-6.10439e-12
2.28415e-12
-6.53802e-12
3.05628e-12
-6.82888e-12
3.91225e-12
-6.82089e-12
4.87121e-12
-6.57348e-12
5.94181e-12
-6.3004e-12
7.1422e-12
-5.92989e-12
8.45166e-12
-5.40819e-12
9.79811e-12
-4.66548e-12
1.1056e-11
-3.66824e-12
1.22045e-11
-2.46461e-12
1.31874e-11
-1.01629e-12
1.39588e-11
6.67992e-13
1.44905e-11
2.57311e-12
1.47083e-11
4.68284e-12
1.44577e-11
6.90638e-12
1.34939e-11
9.09242e-12
1.16999e-11
1.09098e-11
9.14056e-12
1.19191e-11
6.14909e-12
1.15525e-11
3.26684e-12
9.30881e-12
9.88377e-13
6.11386e-12
8.77678e-13
5.79647e-13
-6.69821e-12
1.14433e-12
-6.73127e-12
1.87059e-12
-6.83065e-12
2.79313e-12
-7.46055e-12
3.90311e-12
-7.93886e-12
5.13861e-12
-8.0564e-12
6.66847e-12
-8.10336e-12
8.41534e-12
-8.04729e-12
1.02604e-11
-7.77498e-12
1.21346e-11
-7.2824e-12
1.39987e-11
-6.52956e-12
1.57968e-11
-5.46641e-12
1.74124e-11
-4.08027e-12
1.87901e-11
-2.39397e-12
1.98609e-11
-4.02877e-13
2.05397e-11
1.89435e-12
2.07252e-11
4.49732e-12
2.02799e-11
7.35166e-12
1.9083e-11
1.02893e-11
1.69895e-11
1.30033e-11
1.37816e-11
1.51269e-11
9.5653e-12
1.57688e-11
5.23534e-12
1.36388e-11
1.72422e-12
9.62497e-12
2.60189e-12
5.79982e-13
-7.27819e-12
1.28162e-12
-7.43291e-12
2.2706e-12
-7.81964e-12
3.54851e-12
-8.73846e-12
5.07796e-12
-9.46832e-12
6.97623e-12
-9.95469e-12
9.22523e-12
-1.03524e-11
1.17369e-11
-1.05589e-11
1.44866e-11
-1.05248e-11
1.73738e-11
-1.01696e-11
2.02296e-11
-9.38535e-12
2.29356e-11
-8.17251e-12
2.53405e-11
-6.48514e-12
2.72951e-11
-4.34861e-12
2.87261e-11
-1.8339e-12
2.95447e-11
1.07571e-12
2.96627e-11
4.37929e-12
2.8958e-11
8.05633e-12
2.72436e-11
1.20037e-11
2.43294e-11
1.59175e-11
2.01397e-11
1.93166e-11
1.46018e-11
2.13067e-11
8.30443e-12
1.99361e-11
2.8561e-12
1.50733e-11
5.45798e-12
5.88317e-13
-7.86651e-12
1.47909e-12
-8.32369e-12
2.79315e-12
-9.13371e-12
4.58076e-12
-1.05261e-11
6.74918e-12
-1.16368e-11
9.49321e-12
-1.26987e-11
1.27202e-11
-1.35794e-11
1.63602e-11
-1.4199e-11
2.03218e-11
-1.44864e-11
2.44774e-11
-1.43252e-11
2.8696e-11
-1.3604e-11
3.27503e-11
-1.22268e-11
3.62458e-11
-9.98075e-12
3.91039e-11
-7.20669e-12
4.11449e-11
-3.87498e-12
4.22561e-11
-3.55007e-14
4.23285e-11
4.30683e-12
4.12482e-11
9.13661e-12
3.88906e-11
1.43613e-11
3.49945e-11
1.98135e-11
2.93547e-11
2.49563e-11
2.19499e-11
2.87115e-11
1.30482e-11
2.88378e-11
4.73094e-12
2.33905e-11
1.01889e-11
6.17802e-13
-8.48432e-12
1.77296e-12
-9.47887e-12
3.64693e-12
-1.10077e-11
6.01598e-12
-1.28952e-11
9.20303e-12
-1.48238e-11
1.30231e-11
-1.65188e-11
1.74554e-11
-1.80118e-11
2.24407e-11
-1.91843e-11
2.78523e-11
-1.98979e-11
3.35262e-11
-1.99992e-11
3.92776e-11
-1.93554e-11
4.48902e-11
-1.78394e-11
5.02386e-11
-1.53292e-11
5.46192e-11
-1.15873e-11
5.7704e-11
-6.9598e-12
5.95462e-11
-1.87779e-12
5.98835e-11
3.96951e-12
5.85317e-11
1.04883e-11
5.5351e-11
1.7542e-11
5.04012e-11
2.47634e-11
4.31606e-11
3.21968e-11
3.31665e-11
3.87057e-11
2.06886e-11
4.13156e-11
7.97279e-12
3.61062e-11
1.81617e-11
6.78431e-13
-9.16279e-12
2.26895e-12
-1.10694e-11
4.70766e-12
-1.34465e-11
8.10436e-12
-1.62919e-11
1.23569e-11
-1.90764e-11
1.74777e-11
-2.16397e-11
2.34092e-11
-2.39433e-11
3.00535e-11
-2.58286e-11
3.72516e-11
-2.70961e-11
4.48047e-11
-2.75524e-11
5.24815e-11
-2.70323e-11
6.00437e-11
-2.54016e-11
6.72412e-11
-2.25267e-11
7.38823e-11
-1.82285e-11
7.8832e-11
-1.19095e-11
8.20931e-11
-5.13895e-12
8.33422e-11
2.7204e-12
8.2168e-11
1.16626e-11
7.82178e-11
2.14921e-11
7.23547e-11
3.06265e-11
6.32799e-11
4.12715e-11
5.04056e-11
5.15799e-11
3.35942e-11
5.8127e-11
1.33744e-11
5.6326e-11
3.15361e-11
8.08009e-13
-9.97086e-12
2.87371e-12
-1.31352e-11
6.15301e-12
-1.67258e-11
1.06151e-11
-2.07541e-11
1.61992e-11
-2.46605e-11
2.28874e-11
-2.83279e-11
3.0607e-11
-3.1663e-11
3.92215e-11
-3.4443e-11
4.85379e-11
-3.64124e-11
5.83194e-11
-3.73339e-11
6.82967e-11
-3.70096e-11
7.81763e-11
-3.52812e-11
8.76606e-11
-3.2011e-11
9.64537e-11
-2.70215e-11
1.04445e-10
-1.99004e-11
1.09917e-10
-1.06113e-11
1.13101e-10
-4.63494e-13
1.13367e-10
1.13966e-11
1.11207e-10
2.36522e-11
1.05116e-10
3.67171e-11
9.40399e-11
5.23478e-11
7.72131e-11
6.84067e-11
5.43425e-11
8.09975e-11
2.37225e-11
8.6946e-11
5.52586e-11
9.66753e-13
-1.09377e-11
3.6407e-12
-1.58093e-11
7.88594e-12
-2.09712e-11
1.36076e-11
-2.64759e-11
2.07487e-11
-3.18017e-11
2.92751e-11
-3.68543e-11
3.90787e-11
-4.14666e-11
4.99878e-11
-4.53522e-11
6.1774e-11
-4.81986e-11
7.4165e-11
-4.97249e-11
8.68565e-11
-4.97011e-11
9.95185e-11
-4.79432e-11
1.1181e-10
-4.43021e-11
1.23425e-10
-3.86371e-11
1.34282e-10
-3.07569e-11
1.43374e-10
-1.97039e-11
1.49862e-10
-6.95135e-12
1.53392e-10
7.86654e-12
1.54222e-10
2.28228e-11
1.50072e-10
4.08668e-11
1.39737e-10
6.26825e-11
1.21183e-10
8.69606e-11
9.19498e-11
1.10231e-10
4.95957e-11
1.293e-10
1.04854e-10
1.19069e-12
-1.21285e-11
4.57021e-12
-1.9189e-11
9.9194e-12
-2.63205e-11
1.7098e-11
-3.36546e-11
2.60476e-11
-4.07513e-11
3.66869e-11
-4.74937e-11
4.88775e-11
-5.36572e-11
6.24145e-11
-5.88892e-11
7.70322e-11
-6.28163e-11
9.24255e-11
-6.51181e-11
1.08252e-10
-6.55274e-11
1.24141e-10
-6.38321e-11
1.39701e-10
-5.98621e-11
1.54541e-10
-5.34773e-11
1.68322e-10
-4.4538e-11
1.81507e-10
-3.28883e-11
1.92061e-10
-1.75056e-11
2.00172e-10
-2.44503e-13
2.05455e-10
1.75401e-11
2.05111e-10
4.12109e-11
1.99596e-10
6.81973e-11
1.89698e-10
9.68582e-11
1.75529e-10
1.244e-10
1.44943e-10
1.59886e-10
2.49798e-10
1.045e-12
-1.31737e-11
4.29409e-12
-2.24383e-11
9.39818e-12
-3.14248e-11
1.62144e-11
-4.04709e-11
2.46866e-11
-4.92236e-11
3.47774e-11
-5.75845e-11
4.64384e-11
-6.53182e-11
5.96079e-11
-7.20586e-11
7.42101e-11
-7.74184e-11
9.01541e-11
-8.1062e-11
1.07334e-10
-8.27072e-11
1.25634e-10
-8.21316e-11
1.44931e-10
-7.91595e-11
1.65109e-10
-7.36554e-11
1.8608e-10
-6.55085e-11
2.07811e-10
-5.46195e-11
2.31115e-10
-4.08098e-11
2.54988e-10
-2.41177e-11
2.77627e-10
-5.09804e-12
3.01479e-10
1.73589e-11
3.25575e-10
4.41013e-11
3.49779e-10
7.26535e-11
3.77667e-10
9.65124e-11
4.38677e-10
9.88761e-11
6.79333e-11
6.20541e-10
1.22426e-12
-1.43982e-11
4.92625e-12
-2.61405e-11
1.07231e-11
-3.72218e-11
1.84494e-11
-4.81974e-11
2.80286e-11
-5.88029e-11
3.94138e-11
-6.89697e-11
5.2558e-11
-7.84625e-11
6.74193e-11
-8.69199e-11
8.39427e-11
-9.39417e-11
1.02066e-10
-9.91851e-11
1.21725e-10
-1.02366e-10
1.42855e-10
-1.03262e-10
1.65397e-10
-1.01701e-10
1.89307e-10
-9.75657e-11
2.14583e-10
-9.07843e-11
2.41295e-10
-8.1332e-11
2.69718e-10
-6.92326e-11
3.00117e-10
-5.45164e-11
3.3231e-10
-3.72911e-11
3.66767e-10
-1.70981e-11
4.05365e-10
5.50304e-12
4.48438e-10
2.95808e-11
4.96332e-10
4.86182e-11
5.42067e-10
5.31411e-11
3.7715e-11
5.72285e-10
1.38136e-12
-1.57798e-11
5.50201e-12
-3.02614e-11
1.19431e-11
-4.36631e-11
2.05151e-11
-5.67697e-11
3.11272e-11
-6.94151e-11
4.37227e-11
-8.15652e-11
5.8262e-11
-9.30018e-11
7.47042e-11
-1.03362e-10
9.30159e-11
-1.12253e-10
1.13161e-10
-1.1933e-10
1.35107e-10
-1.24313e-10
1.58829e-10
-1.26983e-10
1.8431e-10
-1.27182e-10
2.11551e-10
-1.24807e-10
2.40585e-10
-1.19818e-10
2.71499e-10
-1.12245e-10
3.0444e-10
-1.02174e-10
3.39649e-10
-8.97255e-11
3.77323e-10
-7.49649e-11
4.18017e-10
-5.77926e-11
4.61963e-10
-3.84423e-11
5.09263e-10
-1.77199e-11
5.56001e-10
1.88021e-12
5.91845e-10
1.72976e-11
3.16864e-11
5.97873e-10
1.51817e-12
-1.72982e-11
6.00863e-12
-3.47521e-11
1.30261e-11
-5.06807e-11
2.23597e-11
-6.61035e-11
3.39037e-11
-8.09592e-11
4.75943e-11
-9.5256e-11
6.3389e-11
-1.08797e-10
8.12545e-11
-1.21227e-10
1.01166e-10
-1.32165e-10
1.23106e-10
-1.4127e-10
1.47062e-10
-1.48269e-10
1.73031e-10
-1.52953e-10
2.01019e-10
-1.5517e-10
2.31041e-10
-1.54828e-10
2.63121e-10
-1.51899e-10
2.97295e-10
-1.46419e-10
3.33605e-10
-1.38484e-10
3.72087e-10
-1.28207e-10
4.12761e-10
-1.15639e-10
4.55637e-10
-1.00668e-10
5.00333e-10
-8.31385e-11
5.45519e-10
-6.29058e-11
5.87226e-10
-3.98268e-11
6.17098e-10
-1.25746e-11
2.50126e-11
6.23772e-10
1.63113e-12
-1.89296e-11
6.4339e-12
-3.95552e-11
1.39454e-11
-5.81925e-11
2.39371e-11
-7.60954e-11
3.62895e-11
-9.33118e-11
5.09304e-11
-1.09897e-10
6.78125e-11
-1.25679e-10
8.6904e-11
-1.40319e-10
1.08184e-10
-1.53445e-10
1.31642e-10
-1.64728e-10
1.57276e-10
-1.73902e-10
1.8509e-10
-1.80767e-10
2.15093e-10
-1.85173e-10
2.47293e-10
-1.87028e-10
2.81684e-10
-1.8629e-10
3.18236e-10
-1.82971e-10
3.56871e-10
-1.7712e-10
3.97439e-10
-1.68775e-10
4.39682e-10
-1.57883e-10
4.83195e-10
-1.44182e-10
5.27171e-10
-1.27115e-10
5.69986e-10
-1.0572e-10
6.08556e-10
-7.83971e-11
6.38096e-10
-4.21141e-11
9.06905e-12
6.54039e-10
1.71891e-12
-2.06488e-11
6.77315e-12
-4.46097e-11
1.46901e-11
-6.61097e-11
2.52275e-11
-8.66331e-11
3.82539e-11
-1.06338e-10
5.36875e-11
-1.25331e-10
7.14743e-11
-1.43466e-10
9.15787e-11
-1.60423e-10
1.13978e-10
-1.75845e-10
1.38662e-10
-1.89412e-10
1.65628e-10
-2.00868e-10
1.94879e-10
-2.10018e-10
2.26417e-10
-2.16711e-10
2.60231e-10
-2.20842e-10
2.96284e-10
-2.22343e-10
3.34489e-10
-2.21176e-10
3.74683e-10
-2.17314e-10
4.16594e-10
-2.10686e-10
4.59809e-10
-2.01097e-10
5.03729e-10
-1.88102e-10
5.47481e-10
-1.70866e-10
5.89751e-10
-1.47991e-10
6.28693e-10
-1.17339e-10
6.62278e-10
-7.56988e-11
-1.84433e-11
6.8979e-10
1.78118e-12
-2.24302e-11
7.02464e-12
-4.98535e-11
1.52558e-11
-7.43411e-11
2.62231e-11
-9.76006e-11
3.97845e-11
-1.199e-10
5.58484e-11
-1.41395e-10
7.43521e-11
-1.61969e-10
9.52525e-11
-1.81324e-10
1.18522e-10
-1.99114e-10
1.44143e-10
-2.15033e-10
1.72109e-10
-2.28834e-10
2.02415e-10
-2.40324e-10
2.35051e-10
-2.49347e-10
2.69991e-10
-2.55781e-10
3.07172e-10
-2.59524e-10
3.46475e-10
-2.6048e-10
3.877e-10
-2.58539e-10
4.30536e-10
-2.53522e-10
4.74546e-10
-2.45107e-10
5.19155e-10
-2.32711e-10
5.63654e-10
-2.15365e-10
6.07239e-10
-1.91576e-10
6.4913e-10
-1.59231e-10
6.8901e-10
-1.15578e-10
-5.73782e-11
7.27945e-10
1.81863e-12
-2.42492e-11
7.19025e-12
-5.52255e-11
1.56455e-11
-8.27967e-11
2.69276e-11
-1.08883e-10
4.0886e-11
-1.33858e-10
5.74193e-11
-1.57928e-10
7.64551e-11
-1.81005e-10
9.7941e-11
-2.0281e-10
1.21841e-10
-2.23013e-10
1.48129e-10
-2.41322e-10
1.76791e-10
-2.57496e-10
2.07811e-10
-2.71344e-10
2.4117e-10
-2.82706e-10
2.76829e-10
-2.9144e-10
3.14716e-10
-2.9741e-10
3.54705e-10
-3.00469e-10
3.96601e-10
-3.00434e-10
4.40119e-10
-2.97041e-10
4.84892e-10
-2.8988e-10
5.30486e-10
-2.78305e-10
5.76459e-10
-2.61339e-10
6.22479e-10
-2.37596e-10
6.68513e-10
-2.05265e-10
7.15163e-10
-1.62228e-10
-1.06375e-10
7.64159e-10
1.833e-12
-2.60825e-11
7.27492e-12
-6.06677e-11
1.58683e-11
-9.13904e-11
2.73551e-11
-1.2037e-10
4.15783e-11
-1.48082e-10
5.84275e-11
-1.74777e-10
7.78204e-11
-2.00398e-10
9.96948e-11
-2.24684e-10
1.24005e-10
-2.47323e-10
1.50716e-10
-2.68033e-10
1.79805e-10
-2.86584e-10
2.11247e-10
-3.02786e-10
2.45016e-10
-3.16475e-10
2.81068e-10
-3.27493e-10
3.19334e-10
-3.35677e-10
3.59703e-10
-3.40839e-10
4.02014e-10
-3.42745e-10
4.46049e-10
-3.41077e-10
4.91554e-10
-3.35384e-10
5.38272e-10
-3.25023e-10
5.86028e-10
-3.09095e-10
6.34851e-10
-2.8642e-10
6.85159e-10
-2.55573e-10
7.37973e-10
-2.15042e-10
-1.63549e-10
7.95148e-10
1.82661e-12
-2.79094e-11
7.28612e-12
-6.61276e-11
1.59385e-11
-1.00043e-10
2.75281e-11
-1.3196e-10
4.18936e-11
-1.62447e-10
5.89171e-11
-1.91801e-10
7.85069e-11
-2.19988e-10
1.00592e-10
-2.46769e-10
1.25116e-10
-2.71847e-10
1.52037e-10
-2.94954e-10
1.81322e-10
-3.15869e-10
2.12942e-10
-3.34406e-10
2.46867e-10
-3.504e-10
2.83057e-10
-3.63682e-10
3.21452e-10
-3.74072e-10
3.61972e-10
-3.81358e-10
4.04503e-10
-3.85276e-10
4.48913e-10
-3.85486e-10
4.95067e-10
-3.81539e-10
5.4288e-10
-3.72836e-10
5.9239e-10
-3.58605e-10
6.43872e-10
-3.37902e-10
6.97974e-10
-3.09675e-10
7.55852e-10
-2.7292e-10
-2.26948e-10
8.1925e-10
1.80239e-12
-2.97122e-11
7.23294e-12
-7.15585e-11
1.58737e-11
-1.08684e-10
2.74747e-11
-1.43561e-10
4.18727e-11
-1.76846e-10
5.89438e-11
-2.08872e-10
7.85884e-11
-2.39632e-10
1.00727e-10
-2.68907e-10
1.25295e-10
-2.96416e-10
1.52244e-10
-3.21903e-10
1.81535e-10
-3.45159e-10
2.13135e-10
-3.66006e-10
2.47014e-10
-3.84279e-10
2.8314e-10
-3.99808e-10
3.21474e-10
-4.12406e-10
3.61965e-10
-4.2185e-10
4.04559e-10
-4.2787e-10
4.49202e-10
-4.3013e-10
4.95874e-10
-4.2821e-10
5.44624e-10
-4.21586e-10
5.95646e-10
-4.09627e-10
6.49362e-10
-3.91618e-10
7.06513e-10
-3.66826e-10
7.68235e-10
-3.34642e-10
-2.94781e-10
8.36068e-10
1.76341e-12
-3.14759e-11
7.1255e-12
-7.6921e-11
1.56938e-11
-1.17253e-10
2.72268e-11
-1.55094e-10
4.15617e-11
-1.91181e-10
5.85701e-11
-2.25881e-10
7.81466e-11
-2.59209e-10
1.00204e-10
-2.90965e-10
1.24674e-10
-3.20885e-10
1.51499e-10
-3.48729e-10
1.80639e-10
-3.74299e-10
2.12059e-10
-3.97426e-10
2.45733e-10
-4.17953e-10
2.8164e-10
-4.35715e-10
3.19761e-10
-4.50527e-10
3.60081e-10
-4.6217e-10
4.02597e-10
-4.70385e-10
4.47327e-10
-4.7486e-10
4.9434e-10
-4.75223e-10
5.4379e-10
-4.71036e-10
5.95971e-10
-4.61808e-10
6.51377e-10
-4.47024e-10
7.10761e-10
-4.2621e-10
7.75168e-10
-3.99049e-10
-3.65526e-10
8.45913e-10
1.71288e-12
-3.31892e-11
6.97408e-12
-8.21826e-11
1.54192e-11
-1.25698e-10
2.68173e-11
-1.66493e-10
4.10079e-11
-2.05371e-10
5.78605e-11
-2.42733e-10
7.72652e-11
-2.78614e-10
9.91303e-11
-3.1283e-10
1.23382e-10
-3.45136e-10
1.4996e-10
-3.75308e-10
1.78822e-10
-4.0316e-10
2.09934e-10
-4.28538e-10
2.43277e-10
-4.51296e-10
2.78841e-10
-4.71279e-10
3.16627e-10
-4.88313e-10
3.56652e-10
-5.02196e-10
3.98958e-10
-5.1269e-10
4.43619e-10
-5.19522e-10
4.90772e-10
-5.22376e-10
5.4064e-10
-5.20904e-10
5.93574e-10
-5.14743e-10
6.50094e-10
-5.03543e-10
7.10917e-10
-4.87034e-10
7.76974e-10
-4.65106e-10
-4.37919e-10
8.49367e-10
1.65374e-12
-3.48433e-11
6.78864e-12
-8.73179e-11
1.50696e-11
-1.33979e-10
2.62781e-11
-1.77702e-10
4.02577e-11
-2.19351e-10
5.68774e-11
-2.59353e-10
7.60248e-11
-2.97761e-10
9.7605e-11
-3.3441e-10
1.21541e-10
-3.69072e-10
1.47772e-10
-4.01539e-10
1.76254e-10
-4.31642e-10
2.06957e-10
-4.59241e-10
2.39867e-10
-4.84206e-10
2.74985e-10
-5.06397e-10
3.12332e-10
-5.2566e-10
3.51951e-10
-5.41814e-10
3.93916e-10
-5.54655e-10
4.38345e-10
-5.63952e-10
4.8542e-10
-5.69451e-10
5.35404e-10
-5.70889e-10
5.88675e-10
-5.68013e-10
6.45742e-10
-5.60611e-10
7.07271e-10
-5.48563e-10
7.74069e-10
-5.31904e-10
-5.10905e-10
8.47054e-10
1.58874e-12
-3.64324e-11
6.57814e-12
-9.23077e-11
1.46631e-11
-1.42065e-10
2.56386e-11
-1.88677e-10
3.93536e-11
-2.33066e-10
5.56783e-11
-2.75678e-10
7.4499e-11
-3.16582e-10
9.57196e-11
-3.5563e-10
1.19262e-10
-3.92614e-10
1.45064e-10
-4.27341e-10
1.73084e-10
-4.59661e-10
2.03294e-10
-4.89451e-10
2.35686e-10
-5.16598e-10
2.70272e-10
-5.40983e-10
3.07086e-10
-5.62474e-10
3.46191e-10
-5.80919e-10
3.87685e-10
-5.9615e-10
4.31715e-10
-6.07982e-10
4.78486e-10
-6.16222e-10
5.28282e-10
-6.20685e-10
5.8148e-10
-6.21211e-10
6.38564e-10
-6.17695e-10
7.00131e-10
-6.1013e-10
7.66877e-10
-5.98651e-10
-5.8359e-10
8.39563e-10
1.52012e-12
-3.79529e-11
6.35047e-12
-9.71385e-11
1.42156e-11
-1.4993e-10
2.49249e-11
-1.99387e-10
3.83335e-11
-2.46475e-10
5.43137e-11
-2.91658e-10
7.27527e-11
-3.35021e-10
9.35539e-11
-3.76432e-10
1.16639e-10
-4.15699e-10
1.41947e-10
-4.52649e-10
1.69437e-10
-4.87151e-10
1.99084e-10
-5.19098e-10
2.30886e-10
-5.484e-10
2.64861e-10
-5.74958e-10
3.01054e-10
-5.98667e-10
3.3954e-10
-6.19406e-10
3.80433e-10
-6.37043e-10
4.23893e-10
-6.51441e-10
4.70136e-10
-6.62464e-10
5.19445e-10
-6.69994e-10
5.72182e-10
-6.73948e-10
6.28793e-10
-6.74306e-10
6.89804e-10
-6.71141e-10
7.55807e-10
-6.64654e-10
-6.55214e-10
8.27431e-10
1.44986e-12
-3.94031e-11
6.11218e-12
-1.01801e-10
1.37407e-11
-1.57559e-10
2.4159e-11
-2.09805e-10
3.72291e-11
-2.59546e-10
5.28268e-11
-3.07256e-10
7.08405e-11
-3.53034e-10
9.11744e-11
-3.96765e-10
1.13751e-10
-4.38275e-10
1.38511e-10
-4.77409e-10
1.65414e-10
-5.14053e-10
1.94438e-10
-5.48123e-10
2.25584e-10
-5.79546e-10
2.58875e-10
-6.08249e-10
2.94363e-10
-6.34154e-10
3.32127e-10
-6.57171e-10
3.72288e-10
-6.77205e-10
4.15009e-10
-6.94162e-10
4.60503e-10
-7.07958e-10
5.09042e-10
-7.18533e-10
5.6096e-10
-7.25867e-10
6.16657e-10
-7.30002e-10
6.76587e-10
-7.31071e-10
7.41249e-10
-7.29316e-10
-7.25122e-10
8.11157e-10
1.37941e-12
-4.07829e-11
5.86863e-12
-1.06291e-10
1.32492e-11
-1.6494e-10
2.33588e-11
-2.19915e-10
3.60669e-11
-2.72254e-10
5.12527e-11
-3.22442e-10
6.88071e-11
-3.70589e-10
8.86357e-11
-4.16594e-10
1.10662e-10
-4.60301e-10
1.34828e-10
-5.01575e-10
1.61095e-10
-5.4032e-10
1.89443e-10
-5.76471e-10
2.19874e-10
-6.09976e-10
2.52412e-10
-6.40788e-10
2.87111e-10
-6.68852e-10
3.24051e-10
-6.94111e-10
3.63352e-10
-7.16505e-10
4.05169e-10
-7.35979e-10
4.49705e-10
-7.52494e-10
4.9721e-10
-7.66038e-10
5.47983e-10
-7.7664e-10
6.02372e-10
-7.84392e-10
6.60765e-10
-7.89463e-10
7.23572e-10
-7.92124e-10
-7.92758e-10
7.91208e-10
1.30997e-12
-4.20933e-11
5.62386e-12
-1.10605e-10
1.27497e-11
-1.72066e-10
2.25386e-11
-2.29704e-10
3.48672e-11
-2.84583e-10
4.96192e-11
-3.37194e-10
6.66876e-11
-3.87657e-10
8.59803e-11
-4.35887e-10
1.07422e-10
-4.81743e-10
1.30956e-10
-5.25109e-10
1.56545e-10
-5.65908e-10
1.84167e-10
-6.04093e-10
2.13826e-10
-6.39635e-10
2.45545e-10
-6.72507e-10
2.79374e-10
-7.02681e-10
3.1539e-10
-7.30128e-10
3.53705e-10
-7.5482e-10
3.94462e-10
-7.76737e-10
4.37845e-10
-7.95877e-10
4.84076e-10
-8.12268e-10
5.33414e-10
-8.25978e-10
5.86154e-10
-8.37132e-10
6.42616e-10
-8.45926e-10
7.03134e-10
-8.52641e-10
-8.57656e-10
7.68032e-10
1.24226e-12
-4.3336e-11
5.38085e-12
-1.14744e-10
1.22484e-11
-1.78934e-10
2.17088e-11
-2.39165e-10
3.36459e-11
-2.9652e-10
4.79473e-11
-3.51495e-10
6.4509e-11
-4.04219e-10
8.32409e-11
-4.54618e-10
1.04069e-10
-5.02571e-10
1.26938e-10
-5.47978e-10
1.51809e-10
-5.90778e-10
1.78661e-10
-6.30945e-10
2.07495e-10
-6.68468e-10
2.3833e-10
-7.03342e-10
2.71212e-10
-7.35563e-10
3.06209e-10
-7.65125e-10
3.4342e-10
-7.92031e-10
3.82972e-10
-8.16289e-10
4.25025e-10
-8.3793e-10
4.69766e-10
-8.5701e-10
5.17416e-10
-8.73628e-10
5.68214e-10
-8.8793e-10
6.22417e-10
-9.00129e-10
6.80285e-10
-9.10509e-10
-9.19432e-10
7.42061e-10
1.17685e-12
-4.45132e-11
5.14156e-12
-1.18709e-10
1.17497e-11
-1.85543e-10
2.08771e-11
-2.48293e-10
3.2414e-11
-3.08057e-10
4.62525e-11
-3.65334e-10
6.22913e-11
-4.20257e-10
8.0442e-11
-4.72769e-10
1.00632e-10
-5.22762e-10
1.22806e-10
-5.70152e-10
1.46925e-10
-6.14897e-10
1.72965e-10
-6.56986e-10
2.00924e-10
-6.96427e-10
2.30815e-10
-7.33234e-10
2.62676e-10
-7.67423e-10
2.96564e-10
-7.99014e-10
3.32563e-10
-8.28029e-10
3.70778e-10
-8.54504e-10
4.11341e-10
-8.78493e-10
4.54409e-10
-9.00077e-10
5.00154e-10
-9.19373e-10
5.48767e-10
-9.36543e-10
6.00443e-10
-9.51805e-10
6.55371e-10
-9.65437e-10
-9.77785e-10
7.13724e-10
1.11392e-12
-4.56275e-11
4.90723e-12
-1.22503e-10
1.12565e-11
-1.91892e-10
2.00484e-11
-2.57085e-10
3.11797e-11
-3.19188e-10
4.4546e-11
-3.787e-10
6.00489e-11
-4.3576e-10
7.76016e-11
-4.90322e-10
9.71327e-11
-5.42293e-10
1.18586e-10
-5.91605e-10
1.4192e-10
-6.38231e-10
1.67111e-10
-6.82176e-10
1.94148e-10
-7.23464e-10
2.2304e-10
-7.62126e-10
2.53812e-10
-7.98196e-10
2.8651e-10
-8.31711e-10
3.21198e-10
-8.62717e-10
3.5796e-10
-8.91266e-10
3.96899e-10
-9.17433e-10
4.38135e-10
-9.41313e-10
4.81799e-10
-9.63038e-10
5.28032e-10
-9.82776e-10
5.7697e-10
-1.00074e-09
6.28739e-10
-1.01721e-09
-1.03249e-09
6.83444e-10
1.05363e-12
-4.66816e-11
4.67848e-12
-1.26128e-10
1.07704e-11
-1.97985e-10
1.92263e-11
-2.65541e-10
2.99481e-11
-3.2991e-10
4.28356e-11
-3.91588e-10
5.77923e-11
-4.50717e-10
7.47331e-11
-5.07262e-10
9.35869e-11
-5.61146e-10
1.14297e-10
-6.12314e-10
1.36819e-10
-6.60753e-10
1.61125e-10
-7.06482e-10
1.87199e-10
-7.49538e-10
2.15041e-10
-7.89967e-10
2.44664e-10
-8.27819e-10
2.76099e-10
-8.63147e-10
3.09392e-10
-8.96009e-10
3.44602e-10
-9.26477e-10
3.81804e-10
-9.54635e-10
4.21083e-10
-9.80592e-10
4.62528e-10
-1.00448e-09
5.06232e-10
-1.02648e-09
5.52278e-10
-1.04679e-09
6.00734e-10
-1.06566e-09
-1.0834e-09
6.51642e-10
9.95856e-13
-4.76779e-11
4.45556e-12
-1.29589e-10
1.02925e-11
-2.03822e-10
1.84125e-11
-2.73661e-10
2.8723e-11
-3.40221e-10
4.11266e-11
-4.03991e-10
5.55292e-11
-4.65119e-10
7.18469e-11
-5.2358e-10
9.00082e-11
-5.79307e-10
1.09955e-10
-6.32261e-10
1.31641e-10
-6.82439e-10
1.55032e-10
-7.29873e-10
1.80107e-10
-7.74612e-10
2.06854e-10
-8.16714e-10
2.35276e-10
-8.56241e-10
2.65388e-10
-8.93258e-10
2.97215e-10
-9.27837e-10
3.30795e-10
-9.60056e-10
3.66172e-10
-9.90012e-10
4.03396e-10
-1.01782e-09
4.42521e-10
-1.04361e-09
4.83593e-10
-1.06755e-09
5.26647e-10
-1.08984e-09
5.71698e-10
-1.11072e-09
-1.13043e-09
6.18731e-10
9.40585e-13
-4.86189e-11
4.23842e-12
-1.32887e-10
9.82299e-12
-2.09407e-10
1.76084e-11
-2.81447e-10
2.75066e-11
-3.50119e-10
3.94232e-11
-4.15908e-10
5.32658e-11
-4.78962e-10
6.89513e-11
-5.39265e-10
8.64079e-11
-5.96764e-10
1.05576e-10
-6.51428e-10
1.26405e-10
-7.03268e-10
1.48856e-10
-7.52325e-10
1.729e-10
-7.98656e-10
1.98517e-10
-8.42331e-10
2.25696e-10
-8.8342e-10
2.54436e-10
-9.21998e-10
2.84743e-10
-9.58144e-10
3.16631e-10
-9.91944e-10
3.50118e-10
-1.0235e-09
3.85224e-10
-1.05292e-09
4.21963e-10
-1.08035e-09
4.60343e-10
-1.10593e-09
5.00355e-10
-1.12986e-09
5.41966e-10
-1.15233e-09
-1.17358e-09
5.85113e-10
8.87571e-13
-4.95068e-11
4.02695e-12
-1.36027e-10
9.36212e-12
-2.14742e-10
1.68147e-11
-2.889e-10
2.63008e-11
-3.59606e-10
3.77286e-11
-4.27336e-10
5.10073e-11
-4.92241e-10
6.60542e-11
-5.54312e-10
8.27968e-11
-6.13506e-10
1.01173e-10
-6.69804e-10
1.21129e-10
-7.23225e-10
1.42621e-10
-7.73816e-10
1.65611e-10
-8.21646e-10
1.90069e-10
-8.66789e-10
2.15973e-10
-9.09323e-10
2.43304e-10
-9.4933e-10
2.72053e-10
-9.86892e-10
3.02209e-10
-1.0221e-09
3.33767e-10
-1.05506e-09
3.66715e-10
-1.08587e-09
4.01038e-10
-1.11467e-09
4.36706e-10
-1.1416e-09
4.73672e-10
-1.16682e-09
5.11863e-10
-1.19052e-09
-1.21289e-09
5.51171e-10
8.36747e-13
-5.0344e-11
3.82092e-12
-1.39011e-10
8.9099e-12
-2.19832e-10
1.60321e-11
-2.96022e-10
2.51074e-11
-3.68681e-10
3.60462e-11
-4.38275e-10
4.87591e-11
-5.04953e-10
6.31634e-11
-5.68716e-10
7.9186e-11
-6.29529e-10
9.6762e-11
-6.8738e-10
1.15834e-10
-7.42297e-10
1.36353e-10
-7.94334e-10
1.58272e-10
-8.43565e-10
1.81552e-10
-8.90069e-10
2.06158e-10
-9.3393e-10
2.32059e-10
-9.75231e-10
2.59226e-10
-1.01406e-09
2.87629e-10
-1.0505e-09
3.1724e-10
-1.08467e-09
3.48021e-10
-1.11665e-09
3.79928e-10
-1.14658e-09
4.129e-10
-1.17457e-09
4.46858e-10
-1.20078e-09
4.81693e-10
-1.22535e-09
-1.24846e-09
5.17265e-10
7.87879e-13
-5.11323e-11
3.6202e-12
-1.41844e-10
8.46651e-12
-2.24679e-10
1.52614e-11
-3.02817e-10
2.39282e-11
-3.77348e-10
3.43794e-11
-4.48726e-10
4.65266e-11
-5.17101e-10
6.02873e-11
-5.82477e-10
7.5587e-11
-6.44828e-10
9.23586e-11
-7.04151e-10
1.10541e-10
-7.60479e-10
1.30078e-10
-8.13871e-10
1.50916e-10
-8.64404e-10
1.73009e-10
-9.12161e-10
1.96307e-10
-9.57228e-10
2.20768e-10
-9.99691e-10
2.46345e-10
-1.03964e-09
2.72993e-10
-1.07715e-09
3.0066e-10
-1.11233e-09
3.29288e-10
-1.14528e-09
3.58808e-10
-1.1761e-09
3.89133e-10
-1.2049e-09
4.20156e-10
-1.2318e-09
4.51742e-10
-1.25694e-09
-1.28044e-09
4.83721e-10
7.40935e-13