/*--------------------------------*- C++ -*----------------------------------*\
  =========                 |
  \\      /  F ield         | OpenFOAM: The Open Source CFD Toolbox
   \\    /   O peration     | Website:  https://openfoam.org
    \\  /    A nd           | Version:  13
     \\/     M anipulation  |
\*---------------------------------------------------------------------------*/
FoamFile
{
    format      ascii;
    class       volVectorField;
    location    "12";
    object      U;
}
// * * * * * * * * * * * * * * * * * * * * * * * * * * * * * * * * * * * * * //

dimensions      [0 1 -1 0 0 0 0];

internalField   nonuniform List<vector> 
6440
(
(0.0214599 -0.0497548 0)
(0.0576635 -0.0797722 0)
(0.0677459 -0.0569544 -1.3408e-15)
(0.0564097 -0.0187201 1.37256e-15)
(0.0297819 0.0313233 0)
(-0.0832283 0.078412 -1.25201e-15)
(-0.247838 0.0970034 8.32192e-16)
(-0.408994 0.0970953 0)
(-0.547467 0.0857467 0)
(-0.650759 0.0687219 0)
(-0.712309 0.0482202 8.69295e-16)
(-0.730722 0.0144693 -1.73589e-15)
(-0.708108 -0.0110806 8.70502e-16)
(-0.650613 -0.033919 0)
(-0.559569 -0.0579721 -2.09581e-15)
(-0.413177 -0.0714631 2.56173e-15)
(-0.262053 -0.0830944 0)
(-0.111349 -0.0941755 0)
(0.0176673 -0.0913869 0)
(0.123792 -0.0756281 0)
(0.208931 -0.0474408 -4.41902e-15)
(0.239477 -0.00975344 8.8717e-15)
(0.224771 0.0280655 -4.47983e-15)
(0.168663 0.0593472 -5.37575e-15)
(0.0691664 0.0687613 7.08654e-15)
(0.0335556 -0.119194 0)
(0.0696029 -0.123371 0)
(0.052024 -0.0229604 -1.43229e-15)
(-0.0237371 0.102627 6.96229e-16)
(-0.136357 0.19868 0)
(-0.277589 0.254941 -6.0764e-16)
(-0.412041 0.270264 1.00401e-15)
(-0.51969 0.248927 -4.51217e-16)
(-0.595362 0.201019 0)
(-0.633498 0.13142 0)
(-0.642064 0.0455973 0)
(-0.599401 -0.0451734 -9.88465e-16)
(-0.537789 -0.134184 1.00234e-15)
(-0.45794 -0.212466 1.0796e-15)
(-0.363843 -0.270708 -1.23159e-15)
(-0.249743 -0.304422 0)
(-0.112 -0.320043 0)
(0.0253364 -0.310318 0)
(0.147414 -0.264772 0)
(0.242528 -0.187892 0)
(0.301367 -0.0895474 -3.25037e-15)
(0.321552 0.0189686 3.66325e-15)
(0.299641 0.120203 0)
(0.239882 0.190966 -3.90065e-15)
(0.116259 0.195269 9.70768e-15)
(0.0327141 -0.132206 0)
(0.0591186 -0.073867 0)
(-0.00312242 0.0944193 0)
(-0.0925678 0.249127 0)
(-0.182567 0.35213 0)
(-0.26565 0.399633 0)
(-0.334786 0.395232 4.98552e-16)
(-0.384214 0.348541 -4.9468e-16)
(-0.410661 0.270858 0)
(-0.40477 0.16535 0)
(-0.362653 0.0370432 0)
(-0.307962 -0.107141 0)
(-0.244596 -0.247646 0)
(-0.173536 -0.358341 1.54121e-15)
(-0.098991 -0.428659 -4.85302e-15)
(-0.0118768 -0.458152 2.77648e-15)
(0.0981259 -0.468182 0)
(0.203068 -0.435158 0)
(0.284159 -0.344659 0)
(0.333583 -0.212962 0)
(0.354278 -0.0622766 0)
(0.337114 0.0890249 0)
(0.299273 0.227017 3.19379e-15)
(0.24799 0.32445 -3.38449e-15)
(0.134386 0.333372 3.97341e-15)
(0.0296109 -0.105747 0)
(0.0498198 -0.0112195 0)
(0.00534488 0.181034 -6.04149e-16)
(-0.0449776 0.335032 4.21997e-16)
(-0.0760699 0.4277 0)
(-0.0950229 0.464758 -6.73277e-16)
(-0.109177 0.444898 6.87228e-16)
(-0.118018 0.387279 0)
(-0.116645 0.291572 1.864e-15)
(-0.0903279 0.156598 -2.79382e-15)
(-0.0382819 -0.0187936 3.62598e-15)
(0.0137377 -0.23131 -4.89349e-15)
(0.055505 -0.410319 1.6005e-15)
(0.0963189 -0.525848 0)
(0.147047 -0.584436 0)
(0.212611 -0.592264 0)
(0.287141 -0.569864 1.53643e-15)
(0.33672 -0.488603 -2.32809e-20)
(0.35801 -0.339398 -1.85735e-15)
(0.361881 -0.154021 0)
(0.339983 0.0374224 0)
(0.299859 0.209721 3.25904e-15)
(0.248693 0.350705 -3.20772e-15)
(0.207756 0.435661 -3.37436e-15)
(0.115127 0.376795 7.99283e-15)
(0.015355 -0.0860217 0)
(0.0653268 0.00246996 0)
(0.0838313 0.186462 -7.50925e-16)
(0.0964509 0.328533 5.17902e-16)
(0.122663 0.405966 0)
(0.151213 0.435311 -7.56991e-16)
(0.175466 0.421647 7.44272e-16)
(0.190065 0.36068 0)
(0.199147 0.253068 1.79027e-15)
(0.222536 0.10291 -2.21611e-15)
(0.258178 -0.128828 1.5514e-15)
(0.294668 -0.366715 -2.15722e-15)
(0.314516 -0.543534 8.61067e-16)
(0.321219 -0.642959 0)
(0.345263 -0.675191 1.37319e-15)
(0.371288 -0.647426 -1.30946e-15)
(0.374827 -0.595149 1.34836e-15)
(0.358262 -0.447693 -1.87747e-19)
(0.315511 -0.234535 -2.20103e-15)
(0.272657 -0.0130382 0)
(0.225641 0.195132 3.97253e-15)
(0.179444 0.35767 1.05346e-18)
(0.1388 0.469811 -3.29038e-15)
(0.125081 0.515163 -2.85052e-15)
(0.0563947 0.324814 4.02737e-15)
(-0.000570363 -0.0845351 0)
(0.0630071 -0.0909314 0)
(0.166515 0.0345869 -6.36634e-16)
(0.260526 0.183736 3.81641e-16)
(0.343274 0.289695 0)
(0.408006 0.341046 -5.01667e-16)
(0.454113 0.333442 4.74236e-16)
(0.484346 0.266038 0)
(0.497086 0.145298 1.01732e-15)
(0.505622 -0.031342 -1.11493e-15)
(0.519378 -0.243036 8.91387e-16)
(0.505051 -0.442506 -1.51485e-15)
(0.473899 -0.589377 6.88127e-16)
(0.446279 -0.667902 0)
(0.435798 -0.699558 -1.25578e-15)
(0.397441 -0.642923 1.29766e-15)
(0.299528 -0.502814 1.54972e-15)
(0.173806 -0.260514 -1.22259e-19)
(0.0659292 -0.00265783 -4.9819e-15)
(0.0283311 0.222679 0)
(0.0323684 0.358396 -3.61951e-15)
(0.00103242 0.471339 5.2079e-15)
(-0.010277 0.517696 -2.28966e-15)
(0.0010854 0.454766 -2.55868e-15)
(-0.0156193 0.14713 5.26329e-15)
(0.0171357 -0.0461139 0)
(0.13117 -0.118315 0)
(0.273098 -0.0787655 -4.45671e-16)
(0.412514 0.0396086 3.25391e-16)
(0.534532 0.165718 0)
(0.622689 0.244176 -3.97064e-16)
(0.699767 0.256947 3.60897e-16)
(0.745477 0.21004 0)
(0.735082 0.110114 7.53642e-16)
(0.710882 -0.0358123 -8.42913e-16)
(0.650678 -0.206529 7.85391e-16)
(0.560718 -0.374439 -1.48869e-15)
(0.465569 -0.498665 7.32969e-16)
(0.408107 -0.563832 0)
(0.347235 -0.564684 0)
(0.194 -0.433345 0)
(-0.024972 -0.182749 3.52678e-15)
(-0.169987 0.064498 -1.16643e-19)
(-0.171049 0.201229 -3.98849e-15)
(-0.191395 0.331801 0)
(-0.192015 0.420342 0)
(-0.185784 0.463293 1.94907e-15)
(-0.15397 0.444225 -2.10374e-15)
(-0.112112 0.256376 -3.17689e-15)
(-0.0618925 -0.0520595 8.06671e-15)
(0.0752703 -0.1605 0)
(0.270444 -0.330825 0)
(0.458867 -0.291994 -2.37894e-16)
(0.61397 -0.149668 2.24206e-16)
(0.722427 0.0111057 0)
(0.805742 0.138781 -3.59648e-16)
(0.805002 0.208909 3.39107e-16)
(0.777341 0.214706 0)
(0.717577 0.159276 7.63546e-16)
(0.633128 0.0543647 -9.15188e-16)
(0.516877 -0.0812214 1.05411e-15)
(0.374304 -0.215347 -2.1946e-15)
(0.274129 -0.297942 1.12307e-15)
(0.203656 -0.347588 0)
(0.0745394 -0.297304 0)
(-0.168581 -0.108577 0)
(-0.32985 0.0451217 3.3354e-15)
(-0.392802 0.141749 2.86053e-19)
(-0.400023 0.232794 -2.17188e-15)
(-0.390355 0.31399 0)
(-0.361593 0.364085 0)
(-0.307631 0.344673 1.9134e-15)
(-0.231998 0.19856 -2.69201e-15)
(-0.13184 -0.0331425 -5.70378e-15)
(-0.0403014 -0.0653396 2.26549e-14)
(0.125953 -0.482654 0)
(0.327074 -0.639907 0)
(0.46629 -0.50916 0)
(0.561484 -0.288032 0)
(0.60689 -0.0701986 5.08925e-16)
(0.6251 0.112149 -4.59837e-16)
(0.60608 0.236382 4.30867e-16)
(0.548197 0.282282 -4.45973e-16)
(0.458588 0.246241 1.00577e-15)
(0.344125 0.152123 7.50835e-19)
(0.220557 0.0404559 4.94618e-19)
(0.0971481 -0.0365414 -2.64177e-15)
(-0.00105181 -0.0623605 -2.78576e-15)
(-0.142234 -0.0987923 3.55398e-15)
(-0.279198 -0.0583401 -3.99445e-15)
(-0.418846 0.0304102 2.56117e-15)
(-0.531422 0.0990479 0)
(-0.579566 0.150394 1.88213e-15)
(-0.56336 0.199094 -1.73698e-15)
(-0.509619 0.228086 1.70466e-15)
(-0.431702 0.187705 5.75002e-19)
(-0.328274 0.0290994 2.66277e-19)
(-0.199796 -0.189159 -4.64118e-15)
(-0.0740688 -0.176549 0)
(-0.0134791 -0.0421718 -8.5982e-15)
(0.103995 -0.760449 0)
(0.229465 -0.777067 0)
(0.265715 -0.56812 0)
(0.262889 -0.285603 0)
(0.229876 -0.0223294 -1.10737e-15)
(0.21754 0.189122 9.16048e-16)
(0.186269 0.314126 -8.4167e-16)
(0.0838298 0.339385 8.1402e-16)
(-0.0599006 0.321701 0)
(-0.200978 0.283939 -1.16814e-15)
(-0.304856 0.23089 -8.2564e-20)
(-0.39578 0.162005 1.09844e-15)
(-0.492887 0.0828269 0)
(-0.57144 0.0364076 -9.24909e-16)
(-0.611404 0.05344 2.60562e-15)
(-0.630461 0.112228 -1.85255e-15)
(-0.658674 0.137206 1.70028e-15)
(-0.677166 0.115001 -1.64267e-15)
(-0.642772 0.0899118 0)
(-0.556843 0.0180916 -1.89888e-15)
(-0.45053 -0.144854 4.89108e-15)
(-0.346551 -0.337459 -7.24895e-15)
(-0.244577 -0.355949 4.15612e-15)
(-0.107037 -0.173278 0)
(-0.0194062 0.0158995 -6.80823e-15)
(0.0314124 -0.899502 0)
(0.0534166 -0.808724 0)
(-0.000935217 -0.516891 0)
(-0.0538655 -0.176224 0)
(-0.10644 0.0970492 1.23113e-15)
(-0.222852 0.293203 -5.84781e-16)
(-0.365719 0.432599 3.92387e-16)
(-0.53119 0.498238 -3.09781e-16)
(-0.671423 0.493045 5.49593e-16)
(-0.764432 0.427685 1.57702e-19)
(-0.833537 0.327217 -5.62494e-16)
(-0.912139 0.21746 0)
(-0.981342 0.120978 -6.21444e-16)
(-1.01947 0.0624365 1.21969e-15)
(-1.01313 0.0494361 -1.76851e-15)
(-0.942622 0.0810053 1.24371e-15)
(-0.836403 0.11416 0)
(-0.763621 0.0825164 1.51145e-15)
(-0.725835 -0.0184239 -1.74493e-15)
(-0.672455 -0.181075 2.03935e-15)
(-0.61064 -0.347503 1.60562e-19)
(-0.529853 -0.446438 -2.38162e-15)
(-0.397768 -0.396795 0)
(-0.178655 -0.131477 0)
(-0.00447254 0.12439 0)
(-0.045806 -0.9123 0)
(-0.135598 -0.688041 0)
(-0.254644 -0.362706 2.92608e-16)
(-0.374266 -0.0264788 -3.32795e-16)
(-0.531259 0.264977 0)
(-0.708268 0.484245 2.82222e-16)
(-0.871361 0.622678 -4.52256e-16)
(-0.99926 0.660114 2.02111e-16)
(-1.07869 0.596639 0)
(-1.13372 0.470943 0)
(-1.20292 0.352888 0)
(-1.28457 0.235643 4.57138e-16)
(-1.35611 0.13479 -4.7584e-16)
(-1.40912 0.0549578 -4.84056e-16)
(-1.42677 -0.00194233 -4.61729e-16)
(-1.39499 -0.0291494 9.12018e-16)
(-1.30445 -0.0544131 9.52614e-16)
(-1.1774 -0.0861742 -1.05017e-15)
(-1.05743 -0.160087 0)
(-0.970298 -0.29267 0)
(-0.894419 -0.447775 1.40268e-15)
(-0.780101 -0.551668 -1.45587e-15)
(-0.606771 -0.5195 0)
(-0.32954 -0.245588 2.35017e-15)
(0.000472725 0.142771 -1.30303e-14)
(-0.105513 -0.733104 0)
(-0.303923 -0.467213 0)
(-0.507591 -0.126803 -2.6188e-16)
(-0.708768 0.208251 1.86612e-16)
(-0.901962 0.487264 2.48873e-16)
(-1.07195 0.679039 -3.95407e-16)
(-1.1799 0.760875 3.52833e-16)
(-1.23083 0.75079 -1.71584e-16)
(-1.2534 0.611895 0)
(-1.29739 0.498445 3.79887e-16)
(-1.36648 0.392675 -3.95767e-16)
(-1.43381 0.286388 -4.11359e-16)
(-1.49548 0.18844 1.48901e-19)
(-1.54344 0.0975452 8.87852e-16)
(-1.5662 0.0140192 -1.29675e-15)
(-1.56619 -0.0642724 8.30543e-16)
(-1.53546 -0.144848 0)
(-1.47413 -0.235988 0)
(-1.38723 -0.343869 0)
(-1.27969 -0.471893 9.24957e-16)
(-1.16884 -0.613897 -9.76428e-16)
(-1.03436 -0.731702 0)
(-0.859607 -0.744847 0)
(-0.5809 -0.528664 -1.53929e-15)
(-0.126935 -0.00666667 2.11011e-19)
(-0.139227 -0.452044 0)
(-0.407227 -0.187261 0)
(-0.658274 0.144606 2.13881e-16)
(-0.876814 0.450103 -1.3239e-16)
(-1.0525 0.684307 -2.01214e-16)
(-1.16777 0.811421 3.4907e-16)
(-1.21738 0.819748 -3.32382e-16)
(-1.24075 0.739669 1.69067e-16)
(-1.27589 0.628811 0)
(-1.33724 0.538634 -3.67992e-16)
(-1.40512 0.442036 3.78758e-16)
(-1.46689 0.339044 3.91928e-16)
(-1.52257 0.235352 -4.07973e-16)
(-1.56536 0.129909 -4.27711e-16)
(-1.58392 0.0240908 -4.27967e-16)
(-1.5857 -0.0829642 8.14569e-16)
(-1.56239 -0.19598 7.92702e-16)
(-1.51608 -0.320522 -7.85136e-16)
(-1.46093 -0.459269 0)
(-1.39532 -0.611413 -8.01027e-16)
(-1.30669 -0.772643 1.63279e-15)
(-1.19541 -0.91859 -8.43748e-16)
(-1.05931 -0.988171 0)
(-0.836875 -0.870129 1.13941e-15)
(-0.344188 -0.39203 -2.27539e-15)
(-0.159701 -0.174386 2.31361e-16)
(-0.443819 0.106139 1.45618e-16)
(-0.689438 0.411688 -1.60598e-16)
(-0.889792 0.667044 2.25572e-16)
(-1.03217 0.832361 -2.16663e-19)
(-1.11202 0.88646 -1.70082e-16)
(-1.14976 0.847319 1.67336e-16)
(-1.18467 0.755742 1.71985e-16)
(-1.24276 0.673948 -3.5546e-16)
(-1.31649 0.594681 3.61554e-16)
(-1.3846 0.498986 -3.70147e-16)
(-1.44634 0.392104 0)
(-1.50026 0.276206 -4.00189e-16)
(-1.53885 0.150568 8.49504e-16)
(-1.55605 0.0178545 -4.30981e-16)
(-1.55232 -0.119248 8.13202e-16)
(-1.52618 -0.261357 -7.83159e-16)
(-1.48614 -0.410421 0)
(-1.44042 -0.567052 0)
(-1.38599 -0.734027 7.59833e-16)
(-1.31757 -0.91212 5.47048e-19)
(-1.2344 -1.08809 -7.65774e-16)
(-1.14565 -1.21265 0)
(-1.0143 -1.17795 0)
(-0.528372 -0.80268 -1.50681e-15)
(-0.154875 0.094135 0)
(-0.418958 0.385351 0)
(-0.635515 0.655145 0)
(-0.808334 0.852151 0)
(-0.923317 0.949879 0)
(-0.989606 0.945861 0)
(-1.03595 0.87911 0)
(-1.09394 0.801477 0)
(-1.1715 0.73631 3.57047e-16)
(-1.24942 0.659065 -3.60579e-16)
(-1.31663 0.559527 0)
(-1.37715 0.442715 0)
(-1.42692 0.309243 0)
(-1.45909 0.159312 0)
(-1.47126 -0.00138157 0)
(-1.46458 -0.167288 0)
(-1.44254 -0.336255 -7.87275e-16)
(-1.41098 -0.508632 1.522e-15)
(-1.37469 -0.684687 -1.49323e-15)
(-1.33356 -0.86755 7.38551e-16)
(-1.28123 -1.06045 7.3479e-16)
(-1.21698 -1.26151 -7.32782e-16)
(-1.15603 -1.43315 -7.48803e-16)
(-1.10243 -1.46715 8.31814e-16)
(-0.669558 -1.1728 -1.15534e-15)
(-0.126562 0.337375 0)
(-0.353564 0.635077 0)
(-0.537329 0.86362 1.24433e-16)
(-0.681146 1.00705 -1.01706e-16)
(-0.776559 1.04923 0)
(-0.840149 1.00737 1.77974e-16)
(-0.899726 0.93156 -3.58732e-16)
(-0.974304 0.866002 1.81609e-16)
(-1.05663 0.805519 3.63428e-16)
(-1.12826 0.723258 -3.68124e-16)
(-1.18741 0.614094 -3.79359e-16)
(-1.23722 0.482709 7.99987e-16)
(-1.27178 0.328385 -4.31331e-16)
(-1.28742 0.154855 -4.79124e-16)
(-1.2878 -0.0295102 -4.84144e-16)
(-1.27951 -0.217073 8.86365e-16)
(-1.26565 -0.407184 0)
(-1.25145 -0.59923 7.85356e-16)
(-1.24073 -0.795103 -7.54071e-16)
(-1.23083 -0.994511 0)
(-1.21325 -1.20466 7.20851e-16)
(-1.18156 -1.42381 -1.42478e-15)
(-1.14537 -1.62827 7.17263e-16)
(-1.12599 -1.71457 7.66246e-16)
(-0.773165 -1.46953 -1.94371e-15)
(-0.0936075 0.5622 1.24823e-16)
(-0.272338 0.840081 7.78839e-17)
(-0.419338 1.03266 -1.1847e-16)
(-0.534575 1.13337 2.0185e-16)
(-0.614131 1.1352 -3.75982e-16)
(-0.676853 1.06962 1.85476e-16)
(-0.743759 0.991883 0)
(-0.821423 0.930891 3.76945e-16)
(-0.894626 0.865767 -3.79729e-16)
(-0.950536 0.772212 -3.88073e-16)
(-0.99211 0.64899 4.0929e-16)
(-1.01926 0.499981 0)
(-1.02591 0.326485 4.96097e-16)
(-1.01454 0.135546 -5.79771e-16)
(-1.00014 -0.0609108 1.14225e-15)
(-0.990512 -0.257555 3.41813e-19)
(-0.985966 -0.45605 -1.86516e-15)
(-0.994093 -0.65848 8.57198e-16)
(-1.01888 -0.864075 -8.06066e-16)
(-1.05808 -1.07571 -3.7632e-19)
(-1.09482 -1.2977 1.45986e-15)
(-1.11023 -1.531 -7.04453e-16)
(-1.10706 -1.75149 0)
(-1.10932 -1.87387 0)
(-0.842916 -1.67089 0)
(-0.0573197 0.728662 0)
(-0.184011 0.995063 0)
(-0.29352 1.16271 0)
(-0.380338 1.23474 0)
(-0.444773 1.21112 0)
(-0.50276 1.13207 0)
(-0.567356 1.05336 -1.97741e-16)
(-0.635669 0.990281 2.00534e-16)
(-0.690437 0.91478 4.07846e-16)
(-0.724736 0.804403 -4.28712e-16)
(-0.743653 0.661864 -4.65213e-16)
(-0.743871 0.491749 5.28659e-16)
(-0.721181 0.300766 0)
(-0.688161 0.0995401 -8.13982e-16)
(-0.67112 -0.0974312 7.38093e-16)
(-0.660278 -0.28819 0)
(-0.657337 -0.479447 0)
(-0.672932 -0.675862 1.01939e-15)
(-0.724227 -0.877191 -1.82923e-15)
(-0.813135 -1.08747 8.3498e-16)
(-0.914987 -1.31311 7.67859e-16)
(-0.989794 -1.55457 -1.43573e-15)
(-1.02669 -1.77906 6.93267e-16)
(-1.03872 -1.92294 0)
(-0.889712 -1.74819 -8.07667e-16)
(-0.0185327 0.828894 0)
(-0.0941297 1.10267 0)
(-0.164706 1.25467 1.16303e-16)
(-0.222533 1.30859 -1.05321e-16)
(-0.270002 1.26715 0)
(-0.318191 1.17673 2.06887e-16)
(-0.372567 1.09099 -4.26131e-16)
(-0.424038 1.01694 2.19048e-16)
(-0.457682 0.922526 4.56352e-16)
(-0.472838 0.790026 -4.9572e-16)
(-0.475286 0.625802 0)
(-0.461008 0.43782 6.82052e-16)
(-0.426364 0.234921 -9.11463e-16)
(-0.39632 0.0308784 -1.25185e-15)
(-0.393805 -0.153402 -1.02385e-15)
(-0.388627 -0.331084 1.72798e-15)
(-0.377424 -0.505153 0)
(-0.373819 -0.680235 1.29165e-15)
(-0.412707 -0.859095 -1.12425e-15)
(-0.523557 -1.0476 0)
(-0.679417 -1.2661 0)
(-0.809855 -1.50979 0)
(-0.894461 -1.72635 0)
(-0.966137 -1.85059 6.85794e-16)
(-0.926648 -1.68059 -1.50415e-15)
(0.0202938 0.867042 0)
(-0.00398591 1.15953 0)
(-0.0336073 1.3087 0)
(-0.0608594 1.35878 0)
(-0.0880895 1.31528 0)
(-0.120507 1.22239 0)
(-0.158477 1.13106 0)
(-0.191872 1.04965 0)
(-0.207984 0.945763 0)
(-0.209622 0.802538 0)
(-0.206467 0.625716 0)
(-0.192732 0.421812 0)
(-0.15683 0.202095 0)
(-0.134174 -0.00143084 0)
(-0.157951 -0.184766 0)
(-0.175669 -0.365508 0)
(-0.174301 -0.535508 0)
(-0.154433 -0.702529 0)
(-0.153863 -0.852647 0)
(-0.238469 -0.99347 0)
(-0.410384 -1.175 0)
(-0.574191 -1.41569 0)
(-0.687389 -1.63861 0)
(-0.814314 -1.69793 0)
(-0.987751 -1.32675 0)
(0.0567922 0.832062 0)
(0.0830212 1.16699 0)
(0.0949487 1.32142 0)
(0.100615 1.38503 0)
(0.0985389 1.34653 0)
(0.0855288 1.25059 0)
(0.0646265 1.15091 0)
(0.0480294 1.06062 0)
(0.0473007 0.950977 0)
(0.0573282 0.804124 0)
(0.0665429 0.625029 0)
(0.0683969 0.42586 0)
(0.0906859 0.226362 0)
(0.12831 0.0587488 0)
(0.0968761 -0.136174 0)
(0.0569394 -0.325071 0)
(0.0277521 -0.498895 0)
(0.0290661 -0.67878 0)
(0.0622617 -0.834419 0)
(0.0617632 -0.929322 0)
(-0.0636297 -1.01362 0)
(-0.237928 -1.1983 0)
(-0.342569 -1.46459 0)
(-0.365419 -1.63318 0)
(-0.286059 -1.58052 0)
(0.0920525 0.721074 0)
(0.166918 1.12284 0)
(0.218566 1.29368 0)
(0.258596 1.36886 0)
(0.285048 1.34807 0)
(0.292303 1.26548 0)
(0.285873 1.15662 0)
(0.280891 1.05193 0)
(0.289638 0.935809 0)
(0.307516 0.790251 0)
(0.322458 0.613749 0)
(0.318381 0.417445 0)
(0.314974 0.225158 0)
(0.313868 0.0400113 0)
(0.303604 -0.141625 0)
(0.283127 -0.313983 0)
(0.251684 -0.482418 0)
(0.231004 -0.668524 0)
(0.242793 -0.84432 0)
(0.26556 -0.950841 0)
(0.218595 -0.992234 0)
(0.097735 -1.08187 0)
(0.0151827 -1.34807 0)
(0.0184124 -1.59873 0)
(0.100991 -1.63246 0)
(0.119418 0.533414 0)
(0.244792 1.02573 0)
(0.336787 1.22681 0)
(0.409807 1.32157 0)
(0.464464 1.32598 0)
(0.493919 1.2602 0)
(0.502177 1.15147 0)
(0.505429 1.03283 0)
(0.518904 0.906678 0)
(0.539744 0.761598 0)
(0.560257 0.591508 0)
(0.561369 0.400763 0)
(0.549482 0.209313 0)
(0.541249 0.0224302 0)
(0.529444 -0.149703 0)
(0.511228 -0.30548 0)
(0.481307 -0.461432 0)
(0.455661 -0.644181 0)
(0.457445 -0.82988 0)
(0.479018 -0.952295 0)
(0.459033 -0.99271 0)
(0.383322 -1.03693 0)
(0.340048 -1.29091 0)
(0.372132 -1.59468 0)
(0.463181 -1.73374 0)
(0.126437 0.284759 0)
(0.307113 0.856832 0)
(0.443223 1.11845 0)
(0.549066 1.23995 0)
(0.631363 1.27275 0)
(0.684686 1.23178 0)
(0.709983 1.1354 0)
(0.720628 1.01179 0)
(0.734227 0.876032 0)
(0.753907 0.728096 0)
(0.774965 0.56482 0)
(0.782893 0.385915 0)
(0.776295 0.20269 0)
(0.768902 0.0230247 0)
(0.753652 -0.14247 0)
(0.730485 -0.291112 0)
(0.698951 -0.443411 0)
(0.673492 -0.627329 0)
(0.675276 -0.821016 0)
(0.698283 -0.955783 0)
(0.688611 -0.999895 0)
(0.638653 -1.02581 0)
(0.62982 -1.28158 0)
(0.68802 -1.62571 0)
(0.781744 -1.82027 0)
(0.0906727 0.0398198 0)
(0.33295 0.618906 0)
(0.523516 0.961137 0)
(0.668458 1.12351 0)
(0.779799 1.18744 0)
(0.858924 1.17745 0)
(0.905094 1.10508 0)
(0.926562 0.99028 0)
(0.940095 0.852642 0)
(0.954787 0.70205 0)
(0.971375 0.542244 0)
(0.980976 0.374251 0)
(0.978708 0.202059 0)
(0.972862 0.0327019 0)
(0.955014 -0.124254 0)
(0.93017 -0.269169 0)
(0.901784 -0.424201 0)
(0.880865 -0.613622 0)
(0.88505 -0.814999 0)
(0.905349 -0.958621 0)
(0.893425 -1.00751 0)
(0.859896 -1.03737 0)
(0.887015 -1.30993 0)
(0.973567 -1.68015 0)
(1.07122 -1.90097 0)
(0.00936868 -0.0718547 0)
(0.293426 0.333151 0)
(0.553634 0.742649 0)
(0.753855 0.96706 0)
(0.902142 1.07063 0)
(1.00996 1.0957 0)
(1.08057 1.05523 0)
(1.11873 0.962122 0)
(1.13731 0.834262 0)
(1.14861 0.686681 0)
(1.15772 0.529439 0)
(1.16223 0.367243 0)
(1.15916 0.203211 0)
(1.1522 0.042798 0)
(1.13357 -0.107211 0)
(1.11212 -0.251638 0)
(1.09135 -0.411615 0)
(1.07751 -0.606028 0)
(1.08379 -0.811139 0)
(1.0937 -0.956489 0)
(1.06822 -1.0103 0)
(1.04942 -1.06629 0)
(1.11748 -1.37587 0)
(1.23284 -1.76014 0)
(1.33379 -1.98085 0)
(-0.0887818 -0.0284028 0)
(0.139073 0.0528007 0)
(0.491119 0.443315 0)
(0.778134 0.752441 0)
(0.984285 0.917803 0)
(1.12868 0.985106 0)
(1.22732 0.980994 0)
(1.28792 0.918035 0)
(1.31974 0.810582 0)
(1.33404 0.674445 0)
(1.3392 0.52307 0)
(1.33796 0.365494 0)
(1.33086 0.206715 0)
(1.32115 0.0525644 0)
(1.30359 -0.0940654 0)
(1.28766 -0.240667 0)
(1.27294 -0.40461 0)
(1.26281 -0.600609 0)
(1.26516 -0.803615 0)
(1.2536 -0.943198 0)
(1.20956 -1.00264 0)
(1.21542 -1.11735 0)
(1.33034 -1.48001 0)
(1.46946 -1.86206 0)
(1.5682 -2.0588 0)
(-0.129589 -0.00110405 0)
(-0.0963484 -0.0791885 0)
(0.238651 0.0460799 0)
(0.676561 0.422039 0)
(0.990296 0.699975 0)
(1.19648 0.837312 0)
(1.33306 0.878458 0)
(1.42185 0.850896 0)
(1.47471 0.771011 0)
(1.50158 0.654038 0)
(1.51131 0.514844 0)
(1.51 0.36455 0)
(1.50139 0.211194 0)
(1.49031 0.0613454 0)
(1.47473 -0.084508 0)
(1.46144 -0.232826 0)
(1.44629 -0.397046 0)
(1.433 -0.589802 0)
(1.42002 -0.783206 0)
(1.37565 -0.910918 0)
(1.32159 -0.991205 0)
(1.3725 -1.20579 0)
(1.53382 -1.62006 0)
(1.68281 -1.97463 0)
(1.77009 -2.12811 0)
(-0.109368 0.0556433 0)
(-0.0860677 -0.141836 0)
(-0.0238042 -0.297035 0)
(0.345132 -0.0972283 0)
(0.833265 0.326395 0)
(1.16334 0.607687 0)
(1.36931 0.729972 0)
(1.50132 0.751866 0)
(1.585 0.707194 0)
(1.6342 0.61642 0)
(1.65872 0.495732 0)
(1.66601 0.358145 0)
(1.66171 0.213125 0)
(1.6528 0.0686428 0)
(1.63902 -0.0746772 0)
(1.62323 -0.220644 0)
(1.6024 -0.380856 0)
(1.57939 -0.565113 0)
(1.53791 -0.739736 0)
(1.45838 -0.858726 0)
(1.42102 -1.00361 0)
(1.53601 -1.33976 0)
(1.72804 -1.78264 0)
(1.86659 -2.08171 0)
(1.93348 -2.18427 0)
(-0.0778347 0.127701 0)
(-0.0461873 -0.137185 0)
(-0.0130642 -0.330185 0)
(-0.00526152 -0.509145 0)
(0.428595 -0.229573 0)
(0.934735 0.21048 0)
(1.27827 0.487552 0)
(1.48933 0.596361 0)
(1.6243 0.60543 0)
(1.70933 0.551669 0)
(1.75956 0.458068 0)
(1.78455 0.339679 0)
(1.79106 0.208407 0)
(1.78825 0.0739816 0)
(1.77621 -0.0613601 0)
(1.75585 -0.199844 0)
(1.72948 -0.352295 0)
(1.69139 -0.520864 0)
(1.61312 -0.667453 0)
(1.51476 -0.801824 0)
(1.53156 -1.06671 0)
(1.70929 -1.51478 0)
(1.90206 -1.94689 0)
(2.01054 -2.16907 0)
(2.05302 -2.2224 0)
(-0.0493581 0.175614 0)
(-0.0317301 -0.146033 0)
(-0.0179413 -0.350001 0)
(-0.00951724 -0.522426 0)
(0.00549005 -0.664297 0)
(0.46659 -0.342585 0)
(0.97558 0.0814999 0)
(1.33087 0.341748 0)
(1.55263 0.438596 0)
(1.69707 0.442776 0)
(1.78884 0.389767 0)
(1.84273 0.301237 0)
(1.86717 0.191537 0)
(1.87565 0.0738862 0)
(1.86771 -0.046598 0)
(1.84647 -0.172998 0)
(1.81782 -0.313689 0)
(1.75967 -0.454489 0)
(1.64758 -0.570438 0)
(1.56906 -0.771919 0)
(1.66535 -1.19417 0)
(1.87667 -1.71103 0)
(2.03706 -2.08426 0)
(2.10687 -2.22441 0)
(2.12929 -2.24063 0)
(-0.0293054 0.197908 0)
(-0.0374464 -0.151512 0)
(-0.0397548 -0.361367 0)
(-0.0383696 -0.528765 0)
(-0.0521 -0.687381 0)
(0.00821065 -0.768135 0)
(0.453105 -0.457729 0)
(0.953237 -0.0688796 0)
(1.32141 0.1715 0)
(1.55779 0.26209 0)
(1.71411 0.271337 0)
(1.81471 0.228238 0)
(1.87451 0.152442 0)
(1.89636 0.0610166 0)
(1.89971 -0.0375773 0)
(1.88605 -0.147765 0)
(1.85872 -0.26915 0)
(1.78093 -0.36619 0)
(1.65839 -0.468809 0)
(1.63953 -0.806743 0)
(1.80863 -1.37575 0)
(2.01054 -1.89254 0)
(2.12068 -2.17506 0)
(2.15853 -2.25469 0)
(2.17069 -2.25497 0)
(-0.0166972 0.215888 0)
(-0.0538285 -0.134423 0)
(-0.0751741 -0.366009 0)
(-0.0850799 -0.540005 0)
(-0.091556 -0.705988 0)
(-0.090691 -0.862417 0)
(0.0356367 -0.850289 0)
(0.419124 -0.587672 0)
(0.882528 -0.250942 0)
(1.25727 -0.0209603 0)
(1.50415 0.0746129 0)
(1.6733 0.0985097 0)
(1.78062 0.0751832 0)
(1.83657 0.0235037 0)
(1.85803 -0.0453793 0)
(1.86168 -0.134794 0)
(1.84374 -0.222856 0)
(1.75685 -0.271474 0)
(1.65562 -0.400867 0)
(1.72483 -0.92271 0)
(1.93104 -1.5736 0)
(2.09172 -2.02987 0)
(2.15749 -2.22469 0)
(2.17908 -2.27431 0)
(2.19056 -2.2671 0)
(-0.0124785 0.240287 0)
(-0.0760737 -0.0964681 0)
(-0.116855 -0.357761 0)
(-0.137594 -0.551859 0)
(-0.132901 -0.720733 0)
(-0.111008 -0.86937 0)
(-0.0764895 -0.972838 0)
(0.0948415 -0.923132 0)
(0.408524 -0.717858 0)
(0.811317 -0.432131 0)
(1.16169 -0.21293 0)
(1.41482 -0.0972722 0)
(1.58275 -0.0537871 0)
(1.68722 -0.0517371 0)
(1.7451 -0.0817272 0)
(1.77699 -0.139349 0)
(1.77021 -0.18126 0)
(1.68775 -0.194547 0)
(1.64366 -0.407649 0)
(1.80312 -1.10206 0)
(2.00975 -1.75349 0)
(2.12506 -2.12208 0)
(2.16722 -2.25657 0)
(2.18489 -2.29116 0)
(2.20086 -2.28431 0)
(-0.0102125 0.282108 0)
(-0.0992183 -0.0330667 0)
(-0.16164 -0.336734 0)
(-0.191219 -0.560508 0)
(-0.181198 -0.744148 0)
(-0.144782 -0.893373 0)
(-0.0887063 -1.00849 0)
(0.00921473 -1.05936 0)
(0.192736 -0.990253 0)
(0.47375 -0.801628 0)
(0.798623 -0.563228 0)
(1.10009 -0.356579 0)
(1.32747 -0.2251 0)
(1.47578 -0.158014 0)
(1.57159 -0.143717 0)
(1.63784 -0.159057 0)
(1.64497 -0.142535 0)
(1.58317 -0.115116 0)
(1.63293 -0.523478 0)
(1.86701 -1.31823 0)
(2.05158 -1.90526 0)
(2.13486 -2.18659 0)
(2.16748 -2.28385 0)
(2.18721 -2.30981 0)
(2.20946 -2.30834 0)
(-0.00766853 0.345571 0)
(-0.117743 0.055384 0)
(-0.20269 -0.305484 0)
(-0.246359 -0.566525 0)
(-0.240217 -0.778948 0)
(-0.19619 -0.946524 0)
(-0.121546 -1.06923 0)
(-0.0223776 -1.14497 0)
(0.113379 -1.14693 0)
(0.3061 -1.04739 0)
(0.55729 -0.858716 0)
(0.833903 -0.631981 0)
(1.08153 -0.426374 0)
(1.26243 -0.288713 0)
(1.38939 -0.227631 0)
(1.47826 -0.191262 0)
(1.48917 -0.110477 0)
(1.46297 -0.0761361 0)
(1.64919 -0.743402 0)
(1.92135 -1.54473 0)
(2.07838 -2.02981 0)
(2.14313 -2.23728 0)
(2.1709 -2.30912 0)
(2.19151 -2.33232 0)
(2.21668 -2.3378 0)
(-0.00258609 0.429298 0)
(-0.127773 0.168405 0)
(-0.238961 -0.264479 0)
(-0.297408 -0.564575 0)
(-0.300359 -0.814365 0)
(-0.257454 -1.01448 0)
(-0.176394 -1.15738 0)
(-0.0690868 -1.2442 0)
(0.0561223 -1.27739 0)
(0.209069 -1.22967 0)
(0.400752 -1.09132 0)
(0.627088 -0.881966 0)
(0.858345 -0.647447 0)
(1.05683 -0.451987 0)
(1.2129 -0.332862 0)
(1.31106 -0.226172 0)
(1.30174 -0.121956 0)
(1.38006 -0.191468 0)
(1.70484 -1.03751 0)
(1.97586 -1.76024 0)
(2.10284 -2.12983 0)
(2.14996 -2.27743 0)
(2.17098 -2.33246 0)
(2.18966 -2.35556 0)
(2.21421 -2.36764 0)
(0.00766432 0.536166 0)
(-0.120571 0.25325 0)
(-0.268933 -0.207218 0)
(-0.3442 -0.551064 0)
(-0.354637 -0.839401 0)
(-0.311036 -1.07511 0)
(-0.226938 -1.24579 0)
(-0.116218 -1.34882 0)
(0.00612217 -1.39832 0)
(0.141137 -1.37957 0)
(0.294292 -1.27596 0)
(0.472016 -1.09655 0)
(0.667657 -0.867351 0)
(0.865802 -0.647503 0)
(1.04114 -0.463204 0)
(1.12226 -0.270895 0)
(1.12468 -0.088981 0)
(1.38957 -0.498307 0)
(1.79104 -1.37781 0)
(2.02495 -1.94925 0)
(2.11485 -2.20529 0)
(2.14419 -2.30603 0)
(2.15799 -2.34998 0)
(2.17382 -2.37584 0)
(2.19736 -2.39565 0)
(0.0167854 0.625811 0)
(-0.115115 0.345451 0)
(-0.299086 -0.122561 0)
(-0.390036 -0.522206 0)
(-0.40514 -0.854733 0)
(-0.35741 -1.12876 0)
(-0.265446 -1.32937 0)
(-0.148658 -1.45029 0)
(-0.0247109 -1.50612 0)
(0.101819 -1.50305 0)
(0.23215 -1.42144 0)
(0.37146 -1.27424 0)
(0.525476 -1.07432 0)
(0.695711 -0.849222 0)
(0.843757 -0.590885 0)
(0.882423 -0.287119 0)
(1.02599 -0.196373 0)
(1.50676 -0.958468 0)
(1.88897 -1.701 0)
(2.05528 -2.09063 0)
(2.1058 -2.25192 0)
(2.11962 -2.3216 0)
(2.12813 -2.36232 0)
(2.14304 -2.39466 0)
(2.16719 -2.42375 0)
(0.0173397 0.716235 0)
(-0.120963 0.442266 0)
(-0.322584 0.00697215 0)
(-0.437831 -0.473654 0)
(-0.456058 -0.860622 0)
(-0.399733 -1.18226 0)
(-0.296132 -1.41707 0)
(-0.168178 -1.55359 0)
(-0.0379139 -1.61047 0)
(0.0864152 -1.60773 0)
(0.201462 -1.53885 0)
(0.309969 -1.41582 0)
(0.415567 -1.23663 0)
(0.522924 -0.992011 0)
(0.594246 -0.665784 0)
(0.677945 -0.299938 0)
(1.1529 -0.658907 0)
(1.68504 -1.43155 0)
(1.96165 -1.94196 0)
(2.04914 -2.17277 0)
(2.07007 -2.272 0)
(2.07433 -2.32851 0)
(2.08246 -2.3737 0)
(2.09994 -2.4152 0)
(2.12703 -2.45407 0)
(0.0105377 0.826486 0)
(-0.136813 0.561136 0)
(-0.341082 0.158658 0)
(-0.476365 -0.393055 0)
(-0.501665 -0.850988 0)
(-0.437511 -1.23703 0)
(-0.320681 -1.51576 0)
(-0.178753 -1.66746 0)
(-0.0398421 -1.72182 0)
(0.0857142 -1.7076 0)
(0.190477 -1.6386 0)
(0.279504 -1.52229 0)
(0.351181 -1.33634 0)
(0.41105 -1.06492 0)
(0.503636 -0.672736 0)
(0.854066 -0.687742 0)
(1.45267 -1.2583 0)
(1.837 -1.79599 0)
(1.97663 -2.07854 0)
(2.00392 -2.20501 0)
(2.00761 -2.27663 0)
(2.01172 -2.33468 0)
(2.02541 -2.38903 0)
(2.04844 -2.44012 0)
(2.0793 -2.48755 0)
(0.00175726 0.948472 0)
(-0.146569 0.71006 0)
(-0.354132 0.31082 0)
(-0.477701 -0.271048 0)
(-0.524276 -0.816727 0)
(-0.460241 -1.28915 0)
(-0.332302 -1.62647 0)
(-0.176745 -1.79778 0)
(-0.0287973 -1.84766 0)
(0.100139 -1.81816 0)
(0.207186 -1.74181 0)
(0.303272 -1.62364 0)
(0.393229 -1.43151 0)
(0.507934 -1.13486 0)
(0.766168 -1.05466 0)
(1.26293 -1.29762 0)
(1.68524 -1.70555 0)
(1.87252 -1.9841 0)
(1.91084 -2.1252 0)
(1.91822 -2.20971 0)
(1.92348 -2.28066 0)
(1.93817 -2.3483 0)
(1.96142 -2.412 0)
(1.99089 -2.47043 0)
(2.02544 -2.52405 0)
(-0.00610087 1.08409 0)
(-0.142184 0.86623 0)
(-0.335371 0.484045 0)
(-0.454896 -0.0968918 0)
(-0.513976 -0.74451 0)
(-0.454231 -1.33186 0)
(-0.31851 -1.74772 0)
(-0.152781 -1.94644 0)
(0.00262657 -1.99164 0)
(0.138022 -1.94945 0)
(0.260066 -1.86637 0)
(0.386927 -1.75381 0)
(0.538033 -1.59477 0)
(0.761276 -1.47498 0)
(1.11699 -1.50425 0)
(1.48709 -1.70167 0)
(1.70922 -1.90662 0)
(1.76569 -2.04127 0)
(1.78876 -2.13512 0)
(1.8066 -2.21859 0)
(1.83105 -2.29915 0)
(1.86118 -2.37484 0)
(1.89423 -2.44354 0)
(1.9291 -2.50558 0)
(1.96614 -2.56274 0)
(-0.00753049 1.21604 0)
(-0.116243 1.01929 0)
(-0.283276 0.667868 0)
(-0.372698 0.123182 0)
(-0.441809 -0.615869 0)
(-0.401313 -1.35381 0)
(-0.26674 -1.87327 0)
(-0.0990471 -2.10811 0)
(0.0586443 -2.14787 0)
(0.199692 -2.09738 0)
(0.3385 -2.00876 0)
(0.495018 -1.90459 0)
(0.69259 -1.806 0)
(0.952927 -1.74786 0)
(1.23509 -1.78543 0)
(1.45559 -1.8832 0)
(1.55144 -1.98299 0)
(1.60826 -2.07432 0)
(1.65445 -2.16471 0)
(1.69999 -2.2537 0)
(1.7447 -2.33745 0)
(1.78667 -2.41332 0)
(1.8259 -2.4815 0)
(1.86402 -2.54387 0)
(1.90271 -2.60269 0)
(0.00130441 1.32107 0)
(-0.0597263 1.15429 0)
(-0.185008 0.859586 0)
(-0.187037 0.414243 0)
(-0.274087 -0.380249 0)
(-0.283 -1.33043 0)
(-0.165033 -1.98677 0)
(-0.0107827 -2.26951 0)
(0.139221 -2.30383 0)
(0.279999 -2.24813 0)
(0.423203 -2.1553 0)
(0.585069 -2.05683 0)
(0.775731 -1.97512 0)
(0.979421 -1.93682 0)
(1.16351 -1.94812 0)
(1.29503 -1.99389 0)
(1.39422 -2.06125 0)
(1.47727 -2.14256 0)
(1.55047 -2.22825 0)
(1.61419 -2.31118 0)
(1.66846 -2.38781 0)
(1.71507 -2.45777 0)
(1.75706 -2.52248 0)
(1.79684 -2.58375 0)
(1.83618 -2.64314 0)
(0.01949 1.36845 0)
(0.0152568 1.24061 0)
(-0.055381 1.01718 0)
(0.148404 0.898118 0)
(-0.0116356 0.0104794 0)