/*--------------------------------*- C++ -*----------------------------------*\
  =========                 |
  \\      /  F ield         | OpenFOAM: The Open Source CFD Toolbox
   \\    /   O peration     | Website:  https://openfoam.org
    \\  /    A nd           | Version:  13
     \\/     M anipulation  |
\*---------------------------------------------------------------------------*/
FoamFile
{
    format      ascii;
    class       volVectorField;
    location    "12";
    object      U;
}
// * * * * * * * * * * * * * * * * * * * * * * * * * * * * * * * * * * * * * //

dimensions      [0 1 -1 0 0 0 0];

internalField   nonuniform List<vector> 
6440
(
(1.69132e-07 -3.05445e-07 0)
(4.07523e-07 -4.97511e-07 0)
(7.9793e-07 -4.75879e-07 -1.14727e-20)
(1.07301e-06 -4.98269e-07 1.14364e-20)
(1.31443e-06 -5.77898e-07 0)
(1.49864e-06 -6.67455e-07 -2.26455e-20)
(1.61131e-06 -7.4907e-07 2.25043e-20)
(1.63577e-06 -8.08837e-07 0)
(1.55764e-06 -8.3409e-07 4.43377e-20)
(1.36878e-06 -8.12262e-07 -4.39331e-20)
(1.06755e-06 -7.3249e-07 -4.35633e-20)
(6.64906e-07 -5.89733e-07 -5.82171e-23)
(1.83966e-07 -3.80793e-07 -7.34624e-23)
(-3.47506e-07 -1.07403e-07 4.21726e-20)
(-8.97049e-07 2.18255e-07 4.17941e-20)
(-1.43132e-06 5.79282e-07 -4.12032e-20)
(-1.92021e-06 9.6186e-07 0)
(-2.34303e-06 1.35465e-06 8.05876e-20)
(-2.67936e-06 1.74888e-06 2.30812e-22)
(-2.92186e-06 2.11504e-06 -7.81783e-20)
(-3.06187e-06 2.39015e-06 7.7262e-20)
(-3.04749e-06 2.42331e-06 -1.51967e-19)
(-3.36328e-06 2.2246e-06 7.46875e-20)
(-2.83651e-06 7.93544e-07 -7.36567e-20)
(-8.21668e-07 -9.18877e-07 -6.13636e-23)
(1.85353e-07 -8.85932e-07 0)
(4.71328e-07 -1.43791e-06 0)
(9.15907e-07 -1.40731e-06 -1.22263e-20)
(1.30518e-06 -1.45027e-06 1.21878e-20)
(1.71901e-06 -1.57933e-06 0)
(2.1299e-06 -1.70129e-06 -2.41218e-20)
(2.51983e-06 -1.786e-06 2.39723e-20)
(2.86057e-06 -1.82284e-06 0)
(3.12239e-06 -1.79953e-06 0)
(3.2837e-06 -1.70927e-06 0)
(3.31981e-06 -1.54636e-06 0)
(3.22379e-06 -1.30463e-06 -4.58511e-20)
(3.00788e-06 -9.88462e-07 4.53143e-20)
(2.68146e-06 -6.06413e-07 0)
(2.25789e-06 -1.7187e-07 4.43783e-20)
(1.75985e-06 2.97146e-07 -4.37546e-20)
(1.21944e-06 7.77813e-07 0)
(6.91829e-07 1.24086e-06 0)
(2.03082e-07 1.67102e-06 8.46127e-20)
(-2.43686e-07 2.04635e-06 -8.31987e-20)
(-6.1498e-07 2.30851e-06 8.24559e-20)
(-8.01238e-07 2.24519e-06 -8.09859e-20)
(-1.61253e-06 1.99146e-06 -8.02076e-20)
(-2.30113e-06 5.33823e-07 -3.20162e-22)
(-1.78467e-07 -2.34064e-06 5.74894e-20)
(2.00022e-07 -1.55157e-06 0)
(5.79202e-07 -2.42749e-06 0)
(1.08818e-06 -2.43283e-06 -1.23466e-20)
(1.57039e-06 -2.5508e-06 1.23099e-20)
(2.1035e-06 -2.74911e-06 0)
(2.64164e-06 -2.89969e-06 -2.43582e-20)
(3.15178e-06 -2.9693e-06 4.84135e-20)
(3.60527e-06 -2.94876e-06 -2.40337e-20)
(3.97567e-06 -2.83126e-06 4.764e-20)
(4.21994e-06 -2.61126e-06 -4.72302e-20)
(4.31659e-06 -2.28372e-06 -4.67661e-20)
(4.25428e-06 -1.84185e-06 -1.62618e-23)
(4.01819e-06 -1.28643e-06 4.57859e-20)
(3.60698e-06 -6.29694e-07 4.5341e-20)
(3.03685e-06 1.09993e-07 8.95203e-23)
(2.3371e-06 9.03868e-07 -4.4257e-20)
(1.5617e-06 1.70937e-06 0)
(7.69839e-07 2.48556e-06 8.68469e-20)
(-1.15385e-08 3.18743e-06 -8.55135e-20)
(-7.30991e-07 3.7836e-06 0)
(-1.31033e-06 4.20672e-06 8.40276e-20)
(-1.54489e-06 4.2422e-06 -1.65666e-19)
(-2.08632e-06 4.05388e-06 8.16128e-20)
(-2.60063e-06 2.89491e-06 -8.09942e-20)
(1.60234e-07 -9.82422e-07 5.9619e-20)
(2.23022e-07 -2.31448e-06 0)
(6.66246e-07 -3.43745e-06 0)
(1.19198e-06 -3.48368e-06 -1.24192e-20)
(1.69713e-06 -3.69998e-06 1.23843e-20)
(2.26049e-06 -3.98593e-06 0)
(2.8244e-06 -4.18375e-06 -2.45003e-20)
(3.36389e-06 -4.26348e-06 4.87037e-20)
(3.85233e-06 -4.21975e-06 -2.41828e-20)
(4.249e-06 -4.05245e-06 0)
(4.51941e-06 -3.75794e-06 0)
(4.64202e-06 -3.32727e-06 0)
(4.5869e-06 -2.75452e-06 -4.65863e-20)
(4.32555e-06 -2.0397e-06 4.60949e-20)
(3.85439e-06 -1.19834e-06 4.56475e-20)
(3.18679e-06 -2.40807e-07 -4.50987e-20)
(2.34977e-06 7.98412e-07 0)
(1.40673e-06 1.86187e-06 8.85655e-20)
(4.02281e-07 2.90427e-06 -8.73237e-20)
(-5.97092e-07 3.85383e-06 0)
(-1.50236e-06 4.65868e-06 0)
(-2.23397e-06 5.2595e-06 0)
(-2.51858e-06 5.43939e-06 0)
(-2.80704e-06 5.33189e-06 0)
(-3.19462e-06 4.49181e-06 -8.25197e-20)
(1.89471e-07 -8.79566e-08 -1.56446e-22)
(2.35792e-07 -3.1409e-06 0)
(7.06863e-07 -4.40753e-06 0)
(1.198e-06 -4.47456e-06 -1.24537e-20)
(1.66642e-06 -4.78493e-06 1.24205e-20)
(2.18638e-06 -5.14413e-06 0)
(2.70549e-06 -5.37744e-06 -2.45676e-20)
(3.20123e-06 -5.45581e-06 4.88453e-20)
(3.65256e-06 -5.38515e-06 -2.42581e-20)
(4.03506e-06 -5.1767e-06 0)
(4.31936e-06 -4.8294e-06 0)
(4.47268e-06 -4.33754e-06 0)
(4.44868e-06 -3.68654e-06 -4.67346e-20)
(4.20199e-06 -2.85867e-06 4.62669e-20)
(3.74267e-06 -1.86341e-06 4.58172e-20)
(3.07975e-06 -7.34596e-07 -4.52941e-20)
(2.21225e-06 4.82213e-07 0)
(1.20987e-06 1.73025e-06 8.90412e-20)
(1.13637e-07 2.95901e-06 -8.78533e-20)
(-1.01634e-06 4.09575e-06 0)
(-2.06332e-06 5.06032e-06 0)
(-2.92304e-06 5.78751e-06 0)
(-3.2996e-06 6.07268e-06 0)
(-3.47719e-06 6.00711e-06 0)
(-3.85828e-06 5.42947e-06 -8.36626e-20)
(1.022e-07 4.34413e-07 6.30071e-20)
(2.36053e-07 -3.97451e-06 0)
(7.10072e-07 -5.27544e-06 0)
(1.13495e-06 -5.33891e-06 -1.24575e-20)
(1.53494e-06 -5.72865e-06 1.24262e-20)
(1.96431e-06 -6.14068e-06 0)
(2.38204e-06 -6.3857e-06 -2.45748e-20)
(2.78884e-06 -6.44533e-06 4.8867e-20)
(3.16686e-06 -6.33722e-06 -2.42736e-20)
(3.49568e-06 -6.0837e-06 4.80754e-20)
(3.75517e-06 -5.69324e-06 -4.77239e-20)
(3.91845e-06 -5.16399e-06 0)
(3.95457e-06 -4.4824e-06 -4.67672e-20)
(3.8277e-06 -3.62678e-06 9.1536e-24)
(3.4862e-06 -2.57259e-06 9.17087e-20)
(2.8749e-06 -1.3263e-06 -4.53687e-20)
(2.03831e-06 4.63573e-08 0)
(1.07226e-06 1.42206e-06 8.92416e-20)
(-3.48886e-08 2.76948e-06 3.94463e-22)
(-1.23221e-06 4.03658e-06 4.8036e-22)
(-2.38584e-06 5.12127e-06 -8.65986e-20)
(-3.38159e-06 5.95399e-06 0)
(-3.90718e-06 6.33347e-06 0)
(-4.07631e-06 6.30147e-06 0)
(-4.50548e-06 5.94377e-06 -8.4474e-20)
(-2.0665e-08 7.05699e-07 6.43258e-20)
(2.27456e-07 -4.77385e-06 0)
(6.87509e-07 -6.00459e-06 0)
(1.02686e-06 -6.04255e-06 -1.24368e-20)
(1.33977e-06 -6.49234e-06 1.24072e-20)
(1.66667e-06 -6.93407e-06 2.46717e-20)
(1.97655e-06 -7.17019e-06 -4.91082e-20)
(2.27739e-06 -7.19864e-06 4.87921e-20)
(2.55784e-06 -7.05353e-06 -2.42408e-20)
(2.81157e-06 -6.76678e-06 0)
(3.03034e-06 -6.35327e-06 4.75828e-20)
(3.19828e-06 -5.81238e-06 -4.72195e-20)
(3.29297e-06 -5.13151e-06 -4.6703e-20)
(3.28086e-06 -4.29442e-06 4.62825e-20)
(3.11666e-06 -3.28611e-06 4.58135e-20)
(2.72508e-06 -2.08321e-06 -4.53419e-20)
(2.02048e-06 -6.62468e-07 0)
(1.08889e-06 8.43286e-07 8.92024e-20)
(2.10945e-08 2.26551e-06 -8.81257e-20)
(-1.18812e-06 3.62336e-06 0)
(-2.44396e-06 4.81948e-06 8.72806e-20)
(-3.60873e-06 5.77247e-06 -8.60893e-20)
(-4.33483e-06 6.26632e-06 0)
(-4.56092e-06 6.304e-06 0)
(-5.08169e-06 6.15157e-06 -8.50021e-20)
(-1.32984e-07 7.78504e-07 -2.18983e-22)
(2.13837e-07 -5.51404e-06 0)
(6.49774e-07 -6.58413e-06 0)
(9.01117e-07 -6.57604e-06 -1.23965e-20)
(1.13834e-06 -7.06104e-06 1.23686e-20)
(1.37988e-06 -7.5191e-06 0)
(1.58677e-06 -7.73724e-06 -2.44539e-20)
(1.78246e-06 -7.73626e-06 2.4345e-20)
(1.97008e-06 -7.56668e-06 0)
(2.15354e-06 -7.26774e-06 0)
(2.33674e-06 -6.85913e-06 0)
(2.5165e-06 -6.34102e-06 0)
(2.67919e-06 -5.70282e-06 -4.656e-20)
(2.79511e-06 -4.9284e-06 4.61624e-20)
(2.81512e-06 -4.0009e-06 0)
(2.67104e-06 -2.90698e-06 0)
(2.25525e-06 -1.61235e-06 0)
(1.4639e-06 -9.82085e-08 0)
(4.25651e-07 1.42407e-06 0)
(-7.75962e-07 2.85447e-06 8.76986e-20)
(-2.13876e-06 4.19248e-06 -8.66009e-20)
(-3.51332e-06 5.32625e-06 0)
(-4.4601e-06 6.00456e-06 0)
(-4.80367e-06 6.13169e-06 0)
(-5.51338e-06 6.18408e-06 -8.52864e-20)
(-2.04584e-07 7.40413e-07 6.63355e-20)
(1.99189e-07 -6.18581e-06 0)
(6.15362e-07 -7.03183e-06 0)
(7.99515e-07 -6.97179e-06 -1.23406e-20)
(9.68693e-07 -7.47519e-06 1.23143e-20)
(1.14764e-06 -7.94367e-06 0)
(1.29871e-06 -8.1577e-06 -2.43437e-20)
(1.42763e-06 -8.13867e-06 4.84268e-20)
(1.55699e-06 -7.96284e-06 -2.40673e-20)
(1.70375e-06 -7.67576e-06 0)
(1.88112e-06 -7.29625e-06 0)
(2.09694e-06 -6.82559e-06 4.6794e-20)
(2.34717e-06 -6.25684e-06 -9.27984e-20)
(2.60947e-06 -5.57548e-06 4.59793e-20)
(2.83637e-06 -4.76388e-06 4.54761e-20)
(2.95254e-06 -3.80228e-06 -4.50538e-20)
(2.83655e-06 -2.66122e-06 0)
(2.32003e-06 -1.29115e-06 -8.85696e-20)
(1.3965e-06 2.61761e-07 8.7602e-20)
(2.05293e-07 1.79939e-06 0)
(-1.23366e-06 3.29673e-06 0)
(-2.8214e-06 4.66776e-06 0)
(-4.11305e-06 5.62512e-06 8.61354e-20)
(-4.77359e-06 5.91165e-06 -8.49917e-20)
(-5.77261e-06 6.17948e-06 -8.53574e-20)
(-2.12008e-07 6.83832e-07 6.70636e-20)
(1.84267e-07 -6.79007e-06 0)
(5.88227e-07 -7.38396e-06 0)
(7.37256e-07 -7.2884e-06 0)
(8.79486e-07 -7.81686e-06 0)
(1.03516e-06 -8.29067e-06 0)
(1.19224e-06 -8.51842e-06 0)
(1.3327e-06 -8.52129e-06 0)
(1.47044e-06 -8.37524e-06 0)
(1.647e-06 -8.12944e-06 -4.73738e-20)
(1.8802e-06 -7.79847e-06 4.70947e-20)
(2.18074e-06 -7.38294e-06 0)
(2.55436e-06 -6.88437e-06 0)
(2.98927e-06 -6.29309e-06 0)
(3.44355e-06 -5.59552e-06 0)
(3.83598e-06 -4.77046e-06 0)
(4.02613e-06 -3.78217e-06 0)
(3.82809e-06 -2.57575e-06 0)
(3.15033e-06 -1.08834e-06 -8.7402e-20)
(2.03814e-06 5.70774e-07 8.64504e-20)
(5.15118e-07 2.27829e-06 0)
(-1.3604e-06 3.96539e-06 -8.60607e-20)
(-3.16585e-06 5.31239e-06 8.50067e-20)
(-4.25007e-06 5.86912e-06 0)
(-5.63915e-06 6.32521e-06 0)
(-7.89268e-08 7.18979e-07 0)
(1.69586e-07 -7.33159e-06 0)
(5.753e-07 -7.68443e-06 0)
(7.33268e-07 -7.59078e-06 0)
(9.13703e-07 -8.17429e-06 0)
(1.11802e-06 -8.68657e-06 0)
(1.34589e-06 -8.95869e-06 0)
(1.58717e-06 -9.03981e-06 2.39043e-20)
(1.84966e-06 -8.97752e-06 -2.37993e-20)
(2.17042e-06 -8.81081e-06 -4.70824e-20)
(2.56381e-06 -8.54146e-06 4.68194e-20)
(3.033e-06 -8.16892e-06 4.62535e-20)
(3.59223e-06 -7.73263e-06 -4.59417e-20)
(4.24447e-06 -7.19637e-06 0)
(4.95192e-06 -6.56969e-06 4.49372e-20)
(5.62994e-06 -5.8254e-06 -5.07645e-23)
(6.12721e-06 -4.90761e-06 -4.41137e-20)
(6.3018e-06 -3.77177e-06 0)
(5.99079e-06 -2.34242e-06 -8.67921e-20)
(5.04691e-06 -6.15083e-07 8.58922e-20)
(3.43783e-06 1.35357e-06 0)
(1.231e-06 3.40599e-06 0)
(-1.1229e-06 5.18812e-06 8.5322e-20)
(-2.85389e-06 6.09514e-06 -8.42906e-20)
(-5.01559e-06 6.80304e-06 0)
(2.11008e-07 9.74079e-07 0)
(1.54257e-07 -7.81785e-06 0)
(5.79751e-07 -7.98358e-06 0)
(7.97816e-07 -7.95602e-06 0)
(1.08901e-06 -8.65079e-06 0)
(1.4388e-06 -9.27082e-06 0)
(1.83929e-06 -9.66277e-06 0)
(2.30166e-06 -9.89894e-06 0)
(2.83898e-06 -9.99348e-06 0)
(3.46562e-06 -9.98885e-06 0)
(4.17671e-06 -9.84611e-06 0)
(4.91122e-06 -9.51749e-06 -4.59473e-20)
(5.74221e-06 -9.0372e-06 4.56533e-20)
(6.70375e-06 -8.4259e-06 0)
(7.72526e-06 -7.68733e-06 0)
(8.76825e-06 -6.85331e-06 0)
(9.67875e-06 -5.89616e-06 0)
(1.02564e-05 -4.73616e-06 0)
(1.0268e-05 -3.28429e-06 0)
(9.5454e-06 -1.4604e-06 0)
(7.9136e-06 7.73424e-07 0)
(5.33529e-06 3.26805e-06 0)
(2.24284e-06 5.54529e-06 -8.46943e-20)
(-4.22095e-07 6.82276e-06 8.37175e-20)
(-3.68477e-06 7.738e-06 0)
(7.58452e-07 1.5964e-06 0)
(1.36842e-07 -8.25763e-06 0)
(6.0397e-07 -8.33565e-06 0)
(9.41529e-07 -8.46749e-06 0)
(1.42708e-06 -9.35525e-06 0)
(2.02779e-06 -1.01844e-05 2.38506e-20)
(2.72231e-06 -1.08276e-05 -2.37828e-20)
(3.55955e-06 -1.13315e-05 0)
(4.52388e-06 -1.16947e-05 0)
(5.60646e-06 -1.18928e-05 -4.64499e-20)
(6.84146e-06 -1.18869e-05 9.22688e-20)
(8.14754e-06 -1.16059e-05 -1.63216e-22)
(9.51117e-06 -1.10009e-05 -4.5355e-20)
(1.09515e-05 -1.01526e-05 0)
(1.24092e-05 -9.09105e-06 0)
(1.38082e-05 -7.89833e-06 4.3865e-20)
(1.50519e-05 -6.61999e-06 -4.35114e-20)
(1.59931e-05 -5.23752e-06 -8.60909e-20)
(1.64182e-05 -3.66809e-06 -5.90964e-23)
(1.60344e-05 -1.74061e-06 8.45745e-20)
(1.44588e-05 7.05281e-07 8.43162e-20)
(1.14543e-05 3.7299e-06 -8.34533e-20)
(7.45718e-06 6.6662e-06 8.39384e-20)
(3.54106e-06 8.36725e-06 -8.30142e-20)
(-1.30002e-06 9.50266e-06 0)
(1.71582e-06 2.81874e-06 0)
(1.16037e-07 -8.66116e-06 0)
(6.51004e-07 -8.79746e-06 0)
(1.17761e-06 -9.20744e-06 0)
(1.94159e-06 -1.03889e-05 0)
(2.88009e-06 -1.1557e-05 0)
(4.01269e-06 -1.25986e-05 0)
(5.40308e-06 -1.34865e-05 0)
(7.04303e-06 -1.42203e-05 0)
(8.89143e-06 -1.46958e-05 -4.61249e-20)
(1.09175e-05 -1.48466e-05 4.59033e-20)
(1.30481e-05 -1.45949e-05 0)
(1.52152e-05 -1.38612e-05 0)
(1.73665e-05 -1.26653e-05 0)
(1.9412e-05 -1.11118e-05 0)
(2.12842e-05 -9.2957e-06 0)
(2.29235e-05 -7.33205e-06 0)
(2.42114e-05 -5.28501e-06 0)
(2.49688e-05 -3.16671e-06 -8.46246e-20)
(2.49046e-05 -8.81573e-07 8.38664e-20)
(2.35875e-05 1.76836e-06 0)
(2.04223e-05 5.04412e-06 0)
(1.53409e-05 8.70936e-06 0)
(9.72361e-06 1.10553e-05 0)
(2.68242e-06 1.23923e-05 0)
(3.24295e-06 4.93392e-06 0)
(9.16076e-08 -9.03908e-06 0)
(7.32363e-07 -9.41406e-06 0)
(1.53519e-06 -1.02437e-05 0)
(2.65706e-06 -1.18817e-05 0)
(4.02733e-06 -1.35299e-05 0)
(5.77844e-06 -1.49981e-05 0)
(7.96721e-06 -1.63023e-05 0)
(1.0521e-05 -1.74196e-05 0)
(1.33831e-05 -1.82336e-05 0)
(1.6491e-05 -1.8625e-05 0)
(1.9768e-05 -1.8493e-05 4.5021e-20)
(2.31061e-05 -1.77536e-05 -4.47723e-20)
(2.63135e-05 -1.63382e-05 0)
(2.92559e-05 -1.4196e-05 0)
(3.1871e-05 -1.147e-05 4.32177e-20)
(3.4084e-05 -8.40843e-06 -4.29019e-20)
(3.58119e-05 -5.15828e-06 -8.46695e-20)
(3.69164e-05 -1.87438e-06 8.39806e-20)
(3.71412e-05 1.3591e-06 0)
(3.5969e-05 4.59321e-06 0)
(3.27434e-05 8.11521e-06 0)
(2.69068e-05 1.21083e-05 8.20626e-20)
(1.92536e-05 1.52669e-05 -1.63354e-19)
(9.0196e-06 1.69356e-05 8.12635e-20)
(5.6926e-06 8.44148e-06 0)
(7.58888e-08 -9.40949e-06 0)
(8.76397e-07 -1.02502e-05 0)
(1.99529e-06 -1.17162e-05 0)
(3.55679e-06 -1.3972e-05 0)
(5.64243e-06 -1.61633e-05 0)
(8.31878e-06 -1.81664e-05 0)
(1.15018e-05 -2.00111e-05 -2.30488e-20)
(1.51556e-05 -2.162e-05 2.29696e-20)
(1.92339e-05 -2.28434e-05 -4.54833e-20)
(2.36506e-05 -2.35215e-05 4.52847e-20)
(2.82958e-05 -2.35184e-05 -4.47352e-20)
(3.3042e-05 -2.27401e-05 4.44996e-20)
(3.77997e-05 -2.11433e-05 0)
(4.23006e-05 -1.85824e-05 -4.34096e-20)
(4.6174e-05 -1.49184e-05 4.31251e-20)
(4.93643e-05 -1.04426e-05 0)
(5.1852e-05 -5.48402e-06 0)
(5.34582e-05 -3.06182e-07 -8.31535e-20)
(5.38958e-05 4.70659e-06 1.06167e-22)
(5.28471e-05 9.25197e-06 8.16656e-20)
(4.97159e-05 1.36122e-05 0)
(4.34455e-05 1.8008e-05 -8.09445e-20)
(3.36217e-05 2.18373e-05 8.01696e-20)
(1.90959e-05 2.42146e-05 0)
(9.69954e-06 1.41469e-05 -6.7989e-20)
(6.66533e-08 -9.80619e-06 0)
(1.03351e-06 -1.14182e-05 0)
(2.55588e-06 -1.37283e-05 0)
(4.82908e-06 -1.67251e-05 0)
(7.82049e-06 -1.96263e-05 0)
(1.15055e-05 -2.24035e-05 0)
(1.58695e-05 -2.50151e-05 0)
(2.08717e-05 -2.73073e-05 0)
(2.64418e-05 -2.90804e-05 0)
(3.24803e-05 -3.01347e-05 0)
(3.88639e-05 -3.03023e-05 0)
(4.54393e-05 -2.94518e-05 0)
(5.20506e-05 -2.75003e-05 0)
(5.85561e-05 -2.44847e-05 0)
(6.44943e-05 -2.01628e-05 0)
(6.94481e-05 -1.42411e-05 0)
(7.33492e-05 -7.23366e-06 0)
(7.5922e-05 5.21865e-07 0)
(7.68623e-05 8.57473e-06 0)
(7.62763e-05 1.64366e-05 0)
(7.35806e-05 2.3454e-05 0)
(6.70872e-05 2.93262e-05 0)
(5.5175e-05 3.34765e-05 0)
(3.48778e-05 3.59533e-05 0)
(1.6051e-05 2.31941e-05 0)
(4.19269e-08 -1.02798e-05 5.1256e-21)
(1.2446e-06 -1.29976e-05 5.75356e-21)
(3.33205e-06 -1.63505e-05 -1.15005e-20)
(6.41431e-06 -2.02887e-05 2.29358e-20)
(1.04062e-05 -2.41807e-05 -2.28938e-20)
(1.52905e-05 -2.79379e-05 0)
(2.10528e-05 -3.14664e-05 2.26798e-20)
(2.76425e-05 -3.45612e-05 2.25154e-20)
(3.49794e-05 -3.69701e-05 -8.98181e-20)
(4.29548e-05 -3.84549e-05 4.46765e-20)
(5.14352e-05 -3.8817e-05 4.42244e-20)
(6.02597e-05 -3.79055e-05 -4.40116e-20)
(6.92197e-05 -3.55963e-05 -4.34645e-20)
(7.81269e-05 -3.18411e-05 8.62577e-20)
(8.68638e-05 -2.67111e-05 -2.07795e-22)
(9.47423e-05 -1.97049e-05 4.18519e-20)
(0.000101168 -1.06529e-05 -8.35917e-20)
(0.000106018 8.46938e-09 -8.208e-20)
(0.000109271 1.17993e-05 1.6249e-19)
(0.000110475 2.44107e-05 -8.03911e-20)
(0.000108282 3.6535e-05 0)
(0.000100781 4.66281e-05 7.83239e-20)
(8.53871e-05 5.26468e-05 -1.55544e-19)
(5.73199e-05 5.51029e-05 7.72041e-20)
(2.63109e-05 3.77368e-05 6.61049e-20)
(3.11389e-08 -1.08782e-05 0)
(1.53284e-06 -1.5046e-05 0)
(4.27007e-06 -1.97143e-05 0)
(8.2653e-06 -2.48712e-05 0)
(1.34029e-05 -2.99579e-05 0)
(1.96706e-05 -3.48722e-05 0)
(2.70433e-05 -3.94683e-05 0)
(3.54638e-05 -4.34828e-05 0)
(4.48455e-05 -4.66159e-05 0)
(5.50792e-05 -4.85927e-05 0)
(6.60302e-05 -4.91895e-05 0)
(7.7536e-05 -4.82344e-05 0)
(8.94103e-05 -4.56049e-05 0)
(0.000101425 -4.11957e-05 0)
(0.000113443 -3.5044e-05 0)
(0.000125121 -2.71908e-05 0)
(0.000135729 -1.67987e-05 0)
(0.000144786 -3.82427e-06 0)
(0.000152295 1.15478e-05 -8.06698e-20)
(0.000157151 2.89374e-05 8.00659e-20)
(0.000157114 4.74374e-05 0)
(0.000149097 6.5474e-05 0)
(0.000129759 7.90395e-05 0)
(9.23652e-05 8.88671e-05 0)
(4.72248e-05 7.16666e-05 0)
(4.7538e-08 -1.16784e-05 0)
(1.89501e-06 -1.77226e-05 0)
(5.34942e-06 -2.40304e-05 0)
(1.03571e-05 -3.06832e-05 0)
(1.6781e-05 -3.71919e-05 0)
(2.45977e-05 -4.34451e-05 0)
(3.37687e-05 -4.9237e-05 0)
(4.42315e-05 -5.424e-05 0)
(5.59029e-05 -5.81009e-05 0)
(6.86809e-05 -6.05071e-05 0)
(8.24378e-05 -6.12094e-05 -4.37046e-20)
(9.70174e-05 -6.00139e-05 4.35113e-20)
(0.000112242 -5.67766e-05 0)
(0.000127903 -5.13923e-05 0)
(0.000143794 -4.37722e-05 0)
(0.000159982 -3.40957e-05 0)
(0.000176027 -2.2086e-05 0)
(0.000191373 -6.89165e-06 0)
(0.00020567 1.15979e-05 0)
(0.000217376 3.27397e-05 0)
(0.000224426 5.65394e-05 0)
(0.000223078 8.14318e-05 -7.57467e-20)
(0.000209617 0.000102658 7.51513e-20)
(0.000174091 0.000119082 0)
(9.33982e-05 0.000135919 0)
(7.65868e-08 -1.26451e-05 0)
(2.2638e-06 -2.07978e-05 0)
(6.40444e-06 -2.88728e-05 0)
(1.2383e-05 -3.71074e-05 0)
(2.00416e-05 -4.50962e-05 0)
(2.93378e-05 -5.27332e-05 0)
(4.02308e-05 -5.97808e-05 0)
(5.26669e-05 -6.58712e-05 0)
(6.65785e-05 -7.06156e-05 0)
(8.18828e-05 -7.36715e-05 0)
(9.84814e-05 -7.47622e-05 0)
(0.000116262 -7.36659e-05 0)
(0.000135104 -7.02035e-05 0)
(0.000154889 -6.4236e-05 0)
(0.000175508 -5.56358e-05 0)
(0.000196933 -4.42865e-05 0)
(0.000219496 -3.02612e-05 0)
(0.000243095 -1.29627e-05 0)
(0.000266517 7.99451e-06 0)
(0.000289942 3.27721e-05 0)
(0.000314153 6.15557e-05 0)
(0.000339262 9.2534e-05 0)
(0.000367737 0.00012092 0)
(0.000411441 0.000137575 0)
(0.000521044 0.000168459 0)
(1.10374e-07 -1.37507e-05 0)
(2.61141e-06 -2.41885e-05 0)
(7.32477e-06 -3.41723e-05 0)
(1.41119e-05 -4.4147e-05 0)
(2.27838e-05 -5.37995e-05 0)
(3.328e-05 -6.30467e-05 0)
(4.55591e-05 -7.16543e-05 0)
(5.95787e-05 -7.92524e-05 0)
(7.52902e-05 -8.54502e-05 0)
(9.26369e-05 -8.99016e-05 0)
(0.000111554 -9.23258e-05 0)
(0.000131977 -9.24983e-05 0)
(0.000153842 -9.02456e-05 0)
(0.000177093 -8.5441e-05 0)
(0.000201706 -7.8005e-05 0)
(0.000227712 -6.78811e-05 0)
(0.000255306 -5.50603e-05 0)
(0.000284736 -3.97722e-05 0)
(0.000315958 -2.17291e-05 0)
(0.000349271 1.22896e-07 0)
(0.000385935 2.53356e-05 0)
(0.000427321 5.1805e-05 0)
(0.000474672 7.37768e-05 0)
(0.000525231 7.9732e-05 0)
(0.000560112 5.39539e-05 0)
(1.33326e-07 -1.50555e-05 0)
(2.92558e-06 -2.81058e-05 0)
(8.16832e-06 -4.02945e-05 0)
(1.57066e-05 -5.22908e-05 0)
(2.53213e-05 -6.38779e-05 0)
(3.69399e-05 -7.50023e-05 0)
(5.05196e-05 -8.54369e-05 0)
(6.60232e-05 -9.48124e-05 0)
(8.34152e-05 -0.000102737 0)
(0.00010266 -0.000108862 0)
(0.000123723 -0.000112908 0)
(0.000146574 -0.000114651 0)
(0.000171193 -0.000113925 0)
(0.00019757 -0.000110623 0)
(0.000225719 -0.00010469 0)
(0.000255695 -9.61365e-05 0)
(0.000287626 -8.50225e-05 0)
(0.000321697 -7.14955e-05 0)
(0.000358111 -5.56135e-05 0)
(0.00039727 -3.70971e-05 0)
(0.000439727 -1.60605e-05 0)
(0.000485886 5.88401e-06 0)
(0.000534383 2.50348e-05 0)
(0.000578348 3.52883e-05 0)
(0.000600003 3.57275e-05 0)
(1.53086e-07 -1.65117e-05 0)
(3.19908e-06 -3.24257e-05 0)
(8.91372e-06 -4.70419e-05 0)
(1.71259e-05 -6.12625e-05 0)
(2.75906e-05 -7.49726e-05 0)
(4.02233e-05 -8.81575e-05 0)
(5.49778e-05 -0.000100608 0)
(7.1819e-05 -0.000111963 0)
(9.07186e-05 -0.000121835 0)
(0.000111656 -0.000129881 0)
(0.000134614 -0.000135822 0)
(0.000159587 -0.000139445 0)
(0.000186576 -0.000140593 0)
(0.000215592 -0.000139171 0)
(0.000246656 -0.00013515 0)
(0.000279796 -0.000128567 0)
(0.000315054 -0.000119521 0)
(0.000352474 -0.000108153 0)
(0.000392084 -9.4548e-05 0)
(0.000433926 -7.8641e-05 0)
(0.000477904 -6.04142e-05 0)
(0.000523351 -4.01496e-05 0)
(0.00056789 -1.88328e-05 0)
(0.000605287 3.22051e-06 0)
(0.000624255 3.12453e-05 0)
(1.68071e-07 -1.8092e-05 0)
(3.42547e-06 -3.70865e-05 0)
(9.54208e-06 -5.43272e-05 0)
(1.83348e-05 -7.09515e-05 0)
(2.95356e-05 -8.69521e-05 0)
(4.30488e-05 -0.000102359 0)
(5.88225e-05 -0.000116988 0)
(7.68195e-05 -0.000130491 0)
(9.70144e-05 -0.00014249 0)
(0.000119392 -0.000152649 0)
(0.000143945 -0.000160698 0)
(0.000170675 -0.000166433 0)
(0.000199592 -0.000169703 0)
(0.000230704 -0.000170418 0)
(0.000264016 -0.000168546 0)
(0.000299515 -0.000164117 0)
(0.000337148 -0.000157208 0)
(0.000376808 -0.000147904 0)
(0.000418299 -0.000136218 0)
(0.000461309 -0.000121975 0)
(0.000505269 -0.000104787 0)
(0.000549055 -8.39822e-05 0)
(0.000590405 -5.85045e-05 0)
(0.000625223 -2.59314e-05 0)
(0.00064798 2.00487e-05 0)
(1.78161e-07 -1.97726e-05 0)
(3.60237e-06 -4.20294e-05 0)
(1.00464e-05 -6.20628e-05 0)
(1.9318e-05 -8.12434e-05 0)
(3.11316e-05 -9.96742e-05 0)
(4.538e-05 -0.000117435 0)
(6.20032e-05 -0.000134367 0)
(8.09593e-05 -0.000150141 0)
(0.00010222 -0.00016439 0)
(0.000125768 -0.000176789 0)
(0.000151599 -0.000187079 0)
(0.000179713 -0.00019506 0)
(0.000210115 -0.000200585 0)
(0.000242804 -0.000203553 0)
(0.000277758 -0.000203913 0)
(0.000314923 -0.000201653 0)
(0.000354177 -0.000196787 0)
(0.000395309 -0.000189298 0)
(0.00043798 -0.00017906 0)
(0.000481691 -0.000165711 0)
(0.000525711 -0.000148523 0)
(0.000568957 -0.000126238 0)
(0.000609843 -9.68517e-05 0)
(0.000646281 -5.71224e-05 0)
(0.000676374 -1.74612e-06 0)
(1.83428e-07 -2.15282e-05 0)
(3.72926e-06 -4.71929e-05 0)
(1.04239e-05 -7.01588e-05 0)
(2.00704e-05 -9.20239e-05 0)
(3.23688e-05 -0.000113002 0)
(4.72018e-05 -0.000133223 0)
(6.45003e-05 -0.000152558 0)
(8.42138e-05 -0.000170695 0)
(0.000106308 -0.000187283 0)
(0.00013076 -0.00020201 0)
(0.00015756 -0.000214623 0)
(0.000186702 -0.000224927 0)
(0.000218181 -0.000232771 0)
(0.000251983 -0.00023804 0)
(0.000288066 -0.000240648 0)
(0.000326346 -0.000240529 0)
(0.000366667 -0.000237612 0)
(0.000408777 -0.000231767 0)
(0.0004523 -0.000222726 0)
(0.000496724 -0.00020996 0)
(0.000541395 -0.000192538 0)
(0.000585526 -0.00016897 0)
(0.000628279 -0.000137064 0)
(0.00066899 -9.38004e-05 0)
(0.000707761 -3.53026e-05 0)
(1.84165e-07 -2.33335e-05 0)
(3.80734e-06 -5.25147e-05 0)
(1.06772e-05 -7.85234e-05 0)
(2.05949e-05 -0.000103176 0)
(3.32515e-05 -0.000126795 0)
(4.85199e-05 -0.00014956 0)
(6.63209e-05 -0.000171372 0)
(8.65949e-05 -0.000191938 0)
(0.000109298 -0.000210924 0)
(0.0001344 -0.000228028 0)
(0.000161882 -0.000243007 0)
(0.00019173 -0.000255668 0)
(0.000223928 -0.000265854 0)
(0.00025845 -0.000273431 0)
(0.000295245 -0.000278278 0)
(0.000334217 -0.000280271 0)
(0.000375208 -0.000279259 0)
(0.000417979 -0.000275015 0)
(0.000462199 -0.00026716 0)
(0.000507452 -0.000255067 0)
(0.000553276 -0.000237742 0)
(0.000599248 -0.000213724 0)
(0.000645131 -0.000181031 0)
(0.000691133 -0.000137235 0)
(0.000738307 -7.97386e-05 0)
(1.80797e-07 -2.51643e-05 0)
(3.83999e-06 -5.79348e-05 0)
(1.08129e-05 -8.70679e-05 0)
(2.09033e-05 -0.000114586 0)
(3.37965e-05 -0.000140917 0)
(4.93572e-05 -0.000166288 0)
(6.74969e-05 -0.000190627 0)
(8.81453e-05 -0.000213665 0)
(0.000111249 -0.00023508 0)
(0.000136769 -0.000254585 0)
(0.000164677 -0.000271944 0)
(0.00019495 -0.000286967 0)
(0.000227563 -0.00029949 0)
(0.000262486 -0.000309362 0)
(0.000299663 -0.000316431 0)
(0.000339006 -0.000320526 0)
(0.000380381 -0.000321433 0)
(0.000423595 -0.000318853 0)
(0.000468405 -0.000312348 0)
(0.000514538 -0.000301262 0)
(0.000561753 -0.000284647 0)
(0.000609941 -0.000261213 0)
(0.000659283 -0.000229348 0)
(0.000710453 -0.000187261 0)
(0.000764853 -0.000133322 0)
(1.73916e-07 -2.69986e-05 0)
(3.83152e-06 -6.33976e-05 0)
(1.08419e-05 -9.57092e-05 0)
(2.10134e-05 -0.000126149 0)
(3.40306e-05 -0.00015524 0)
(4.97515e-05 -0.000183257 0)
(6.80785e-05 -0.000210156 0)
(8.89325e-05 -0.000235686 0)
(0.00011225 -0.000259543 0)
(0.000137983 -0.000281451 0)
(0.000166095 -0.000301184 0)
(0.000196555 -0.000318555 0)
(0.000229335 -0.000333396 0)
(0.000264401 -0.000345544 0)
(0.000301705 -0.000354823 0)
(0.000341178 -0.000361031 0)
(0.000382722 -0.000363913 0)
(0.00042621 -0.000363134 0)
(0.000471499 -0.000358237 0)
(0.000518465 -0.000348594 0)
(0.000567058 -0.000333368 0)
(0.000617409 -0.0003115 0)
(0.000669947 -0.000281765 0)
(0.000725556 -0.000242936 0)
(0.000785681 -0.000194078 0)
(1.64152e-07 -2.88171e-05 0)
(3.78765e-06 -6.88533e-05 0)
(1.07767e-05 -0.000104372 0)
(2.0948e-05 -0.000137765 0)
(3.39879e-05 -0.000169647 0)
(4.97503e-05 -0.000200334 0)
(6.81303e-05 -0.000229806 0)
(8.90399e-05 -0.000257834 0)
(0.000112408 -0.000284129 0)
(0.000138178 -0.000308428 0)
(0.000166307 -0.000330517 0)
(0.000196759 -0.000350212 0)
(0.000229505 -0.000367346 0)
(0.000264512 -0.000381751 0)
(0.000301747 -0.000393238 0)
(0.000341164 -0.000401587 0)
(0.000382709 -0.000406527 0)
(0.000426323 -0.000407716 0)
(0.000471961 -0.000404714 0)
(0.000519622 -0.000396958 0)
(0.000569412 -0.000383746 0)
(0.000621616 -0.000364258 0)
(0.000676798 -0.000337619 0)
(0.000735888 -0.000303048 0)
(0.000800238 -0.000260095 0)
(1.52235e-07 -3.06034e-05 0)
(3.71412e-06 -7.42587e-05 0)
(1.06321e-05 -0.000112991 0)
(2.07321e-05 -0.00014935 0)
(3.37068e-05 -0.000184036 0)
(4.94074e-05 -0.0002174 0)
(6.77233e-05 -0.000249445 0)
(8.85601e-05 -0.000279963 0)
(0.000111839 -0.000308681 0)
(0.000137499 -0.000335351 0)
(0.000165491 -0.000359769 0)
(0.000195776 -0.00038176 0)
(0.000228327 -0.000401162 0)
(0.000263119 -0.000417808 0)
(0.000300131 -0.000431506 0)
(0.000339346 -0.000442036 0)
(0.000380752 -0.000449129 0)
(0.000424353 -0.000452458 0)
(0.000470184 -0.000451624 0)
(0.000518345 -0.000446146 0)
(0.000569048 -0.000435468 0)
(0.000622673 -0.000418982 0)
(0.000679833 -0.000396104 0)
(0.000741428 -0.00036639 0)
(0.000808653 -0.000329716 0)
(1.3884e-07 -3.23444e-05 0)
(3.61731e-06 -7.95779e-05 0)
(1.04223e-05 -0.000121509 0)
(2.0392e-05 -0.000160832 0)
(3.32269e-05 -0.000198317 0)
(4.87782e-05 -0.000234352 0)
(6.69314e-05 -0.00026896 0)
(8.75867e-05 -0.000301951 0)
(0.000110661 -0.000333069 0)
(0.000136089 -0.000362083 0)
(0.000163818 -0.0003888 0)
(0.00019381 -0.000413057 0)
(0.000226039 -0.000434703 0)
(0.000260489 -0.000453576 0)
(0.000297156 -0.000469495 0)
(0.000336048 -0.000482247 0)
(0.000377191 -0.000491583 0)
(0.000420639 -0.000497207 0)
(0.000466491 -0.000498775 0)
(0.000514919 -0.000495895 0)
(0.000566202 -0.000488145 0)
(0.000620766 -0.000475102 0)
(0.000679226 -0.000456407 0)
(0.000742409 -0.000431863 0)
(0.000811349 -0.00040156 0)
(1.24644e-07 -3.403e-05 0)
(3.50272e-06 -8.4782e-05 0)
(1.0162e-05 -0.000129882 0)
(1.99528e-05 -0.000172148 0)
(3.2587e-05 -0.000212418 0)
(4.79167e-05 -0.000251106 0)
(6.58252e-05 -0.000288256 0)
(8.62101e-05 -0.000323695 0)
(0.000108985 -0.000357186 0)
(0.000134081 -0.000388512 0)
(0.000161446 -0.000417497 0)
(0.000191042 -0.000443991 0)
(0.000222848 -0.000467857 0)
(0.000256856 -0.000488946 0)
(0.000293076 -0.000507092 0)
(0.000331538 -0.000522105 0)
(0.000372299 -0.00053376 0)
(0.000415452 -0.000541805 0)
(0.000461141 -0.000545955 0)
(0.000509583 -0.000545909 0)
(0.000561093 -0.000541361 0)
(0.00061611 -0.00053204 0)
(0.000675221 -0.000517761 0)
(0.000739168 -0.000498498 0)
(0.000808829 -0.000474479 0)
(1.10148e-07 -3.5653e-05 0)
(3.37583e-06 -8.98489e-05 0)
(9.86373e-06 -0.000138072 0)
(1.94381e-05 -0.00018325 0)
(3.18224e-05 -0.000226278 0)
(4.68722e-05 -0.000267593 0)
(6.44702e-05 -0.000307256 0)
(8.45121e-05 -0.000345113 0)
(0.00010691 -0.000380944 0)
(0.000131595 -0.000414549 0)
(0.000158514 -0.000445768 0)
(0.000187632 -0.00047447 0)
(0.00021893 -0.000500531 0)
(0.00025241 -0.000523823 0)
(0.000288094 -0.000544201 0)
(0.000326029 -0.000561499 0)
(0.000366293 -0.00057553 0)
(0.000409005 -0.000586085 0)
(0.000454339 -0.000592943 0)
(0.000502535 -0.000595883 0)
(0.000553919 -0.000594702 0)
(0.000608922 -0.000589248 0)
(0.000668085 -0.000579466 0)
(0.000732061 -0.00056545 0)
(0.00080159 -0.00054751 0)
(9.58278e-08 -3.72088e-05 0)
(3.2408e-06 -9.47624e-05 0)
(9.53916e-06 -0.000146053 0)
(1.8868e-05 -0.0001941 0)
(3.09648e-05 -0.00023985 0)
(4.5689e-05 -0.000283757 0)
(6.29237e-05 -0.000325899 0)
(8.25651e-05 -0.000366139 0)
(0.000104525 -0.000404273 0)
(0.000128734 -0.000440121 0)
(0.00015514 -0.00047354 0)
(0.00018371 -0.000504417 0)
(0.000214431 -0.000532648 0)
(0.000247308 -0.000558126 0)
(0.000282374 -0.000580731 0)
(0.000319687 -0.000600327 0)
(0.000359338 -0.000616763 0)
(0.000401464 -0.000629878 0)
(0.000446248 -0.000639512 0)
(0.00049394 -0.000645514 0)
(0.000544859 -0.000647767 0)
(0.000599411 -0.000646214 0)
(0.000658082 -0.000640893 0)
(0.000721439 -0.000631981 0)
(0.000790101 -0.000619831 0)
(8.19866e-08 -3.86949e-05 0)
(3.10167e-06 -9.95113e-05 0)
(9.19741e-06 -0.000153804 0)
(1.82602e-05 -0.00020467 0)
(3.00409e-05 -0.000253097 0)
(4.4404e-05 -0.000299555 0)
(6.12347e-05 -0.000344136 0)
(8.04294e-05 -0.000386718 0)
(0.000101901 -0.000427116 0)
(0.000125581 -0.000465169 0)
(0.000151419 -0.000500751 0)
(0.000179384 -0.00053377 0)
(0.000209465 -0.000564141 0)
(0.000241672 -0.000591781 0)
(0.000276042 -0.000616596 0)
(0.00031264 -0.000638482 0)
(0.000351565 -0.000657327 0)
(0.000392955 -0.000673015 0)
(0.000436999 -0.000685438 0)
(0.000483937 -0.00069451 0)
(0.000534073 -0.000700183 0)
(0.000587773 -0.000702472 0)
(0.000645468 -0.000701484 0)
(0.00070764 -0.000697447 0)
(0.000774804 -0.000690739 0)
(6.89427e-08 -4.01102e-05 0)
(2.9611e-06 -0.000104089 0)
(8.84664e-06 -0.000161312 0)
(1.76285e-05 -0.000214938 0)
(2.90725e-05 -0.000265992 0)
(4.3048e-05 -0.000314954 0)
(5.94426e-05 -0.000361929 0)
(7.81547e-05 -0.000406809 0)
(9.90984e-05 -0.000449429 0)
(0.000122206 -0.000489644 0)
(0.000147429 -0.000527349 0)
(0.000174738 -0.000562471 0)
(0.000204123 -0.000594946 0)