/*--------------------------------*- C++ -*----------------------------------*\
  =========                 |
  \\      /  F ield         | OpenFOAM: The Open Source CFD Toolbox
   \\    /   O peration     | Website:  https://openfoam.org
    \\  /    A nd           | Version:  13
     \\/     M anipulation  |
\*---------------------------------------------------------------------------*/
FoamFile
{
    format      ascii;
    class       volScalarField;
    location    "11";
    object      p;
}
// * * * * * * * * * * * * * * * * * * * * * * * * * * * * * * * * * * * * * //

dimensions      [0 2 -2 0 0 0 0];

internalField   nonuniform List<scalar> 
6440
(
144.903
144.905
144.898
144.861
144.798
144.73
144.686
144.672
144.684
144.712
144.747
144.786
144.826
144.866
144.907
144.944
144.972
144.987
144.989
144.981
144.966
144.946
144.93
144.92
144.917
144.891
144.884
144.853
144.788
144.708
144.647
144.623
144.633
144.661
144.693
144.728
144.765
144.804
144.845
144.887
144.923
144.951
144.964
144.965
144.954
144.936
144.915
144.899
144.891
144.888
144.853
144.837
144.796
144.73
144.661
144.616
144.611
144.637
144.678
144.718
144.753
144.781
144.805
144.833
144.865
144.898
144.922
144.931
144.925
144.907
144.884
144.863
144.849
144.843
144.837
144.826
144.815
144.778
144.717
144.65
144.607
144.605
144.635
144.68
144.729
144.777
144.818
144.846
144.862
144.875
144.89
144.899
144.893
144.871
144.841
144.813
144.794
144.784
144.781
144.775
144.822
144.82
144.784
144.708
144.621
144.555
144.524
144.527
144.57
144.652
144.743
144.825
144.882
144.906
144.913
144.91
144.888
144.85
144.804
144.76
144.731
144.719
144.717
144.722
144.718
144.815
144.809
144.73
144.58
144.418
144.298
144.235
144.24
144.317
144.453
144.615
144.769
144.889
144.955
144.97
144.952
144.891
144.813
144.74
144.689
144.667
144.663
144.672
144.686
144.687
144.757
144.697
144.517
144.293
144.094
143.956
143.902
143.936
144.051
144.244
144.48
144.708
144.897
145.016
145.043
145.001
144.899
144.79
144.702
144.654
144.642
144.647
144.667
144.689
144.693
144.596
144.469
144.242
144.008
143.818
143.704
143.689
143.751
143.898
144.136
144.424
144.708
144.949
145.091
145.101
145.026
144.898
144.773
144.684
144.649
144.656
144.677
144.701
144.717
144.718
144.427
144.291
144.074
143.864
143.707
143.63
143.629
143.693
143.862
144.129
144.446
144.756
145.011
145.124
145.09
144.991
144.863
144.746
144.675
144.664
144.693
144.723
144.741
144.742
144.736
144.365
144.241
144.061
143.878
143.734
143.66
143.656
143.743
143.928
144.193
144.49
144.777
144.981
145.03
144.968
144.872
144.765
144.682
144.65
144.673
144.72
144.751
144.757
144.747
144.734
144.423
144.319
144.177
144.018
143.883
143.799
143.785
143.86
144.021
144.243
144.484
144.704
144.817
144.807
144.746
144.672
144.602
144.572
144.601
144.674
144.741
144.764
144.752
144.73
144.711
144.567
144.495
144.377
144.235
144.104
144.008
143.968
144
144.105
144.253
144.417
144.536
144.565
144.532
144.487
144.446
144.422
144.448
144.538
144.666
144.759
144.775
144.742
144.709
144.681
144.755
144.696
144.587
144.451
144.318
144.207
144.135
144.118
144.153
144.218
144.289
144.321
144.308
144.278
144.258
144.252
144.27
144.336
144.459
144.615
144.725
144.736
144.701
144.683
144.66
144.928
144.864
144.754
144.617
144.473
144.339
144.232
144.164
144.132
144.123
144.114
144.097
144.075
144.063
144.069
144.091
144.139
144.224
144.351
144.5
144.606
144.61
144.589
144.639
144.654
145.021
144.96
144.852
144.709
144.547
144.385
144.241
144.124
144.036
143.97
143.917
143.88
143.862
143.867
143.889
143.931
143.994
144.085
144.206
144.342
144.441
144.455
144.46
144.591
144.659
145.036
144.982
144.871
144.718
144.538
144.352
144.176
144.019
143.89
143.784
143.707
143.664
143.651
143.66
143.69
143.743
143.819
143.921
144.048
144.192
144.312
144.362
144.414
144.608
144.707
144.982
144.925
144.81
144.651
144.461
144.259
144.06
143.876
143.714
143.584
143.494
143.447
143.43
143.439
143.473
143.536
143.63
143.752
143.903
144.072
144.234
144.343
144.479
144.74
144.841
144.852
144.796
144.686
144.529
144.335
144.122
143.907
143.702
143.524
143.382
143.289
143.233
143.211
143.219
143.259
143.335
143.45
143.601
143.781
143.978
144.169
144.328
144.533
144.832
144.948
144.676
144.628
144.528
144.377
144.181
143.962
143.735
143.52
143.336
143.196
143.097
143.034
143.009
143.02
143.068
143.157
143.293
143.475
143.686
143.907
144.114
144.29
144.484
144.726
144.806
144.508
144.462
144.368
144.217
144.019
143.791
143.555
143.337
143.158
143.022
142.923
142.857
142.835
142.852
142.907
143.007
143.161
143.369
143.61
143.856
144.083
144.276
144.459
144.569
144.558
144.373
144.323
144.226
144.073
143.873
143.644
143.41
143.197
143.024
142.892
142.786
142.713
142.691
142.713
142.776
142.884
143.048
143.27
143.528
143.792
144.039
144.266
144.473
144.607
144.671
144.275
144.222
144.121
143.964
143.763
143.532
143.296
143.083
142.914
142.781
142.668
142.583
142.558
142.582
142.649
142.76
142.926
143.153
143.423
143.707
143.978
144.223
144.432
144.602
144.755
144.208
144.155
144.05
143.888
143.684
143.453
143.215
143.002
142.834
142.701
142.583
142.494
142.468
142.497
142.57
142.683
142.848
143.074
143.349
143.644
143.927
144.183
144.403
144.577
144.707
144.174
144.121
144.014
143.851
143.644
143.409
143.172
142.959
142.789
142.656
142.54
142.46
142.434
142.459
142.53
142.641
142.8
143.021
143.295
143.589
143.874
144.132
144.352
144.533
144.668
144.176
144.122
144.013
143.852
143.643
143.409
143.173
142.958
142.783
142.651
142.543
142.469
142.435
142.454
142.524
142.631
142.782
142.993
143.258
143.545
143.824
144.077
144.294
144.466
144.598
144.219
144.162
144.049
143.885
143.683
143.453
143.218
143.002
142.822
142.687
142.586
142.516
142.483
142.496
142.559
142.655
142.791
142.986
143.235
143.509
143.776
144.018
144.223
144.391
144.515
144.295
144.236
144.119
143.959
143.76
143.537
143.308
143.094
142.912
142.774
142.673
142.608
142.576
142.585
142.633
142.708
142.821
142.993
143.222
143.479
143.73
143.956
144.146
144.295
144.407
144.404
144.338
144.218
144.059
143.868
143.653
143.433
143.227
143.049
142.909
142.808
142.742
142.71
142.708
142.735
142.782
142.866
143.011
143.218
143.455
143.684
143.886
144.051
144.18
144.265
144.531
144.459
144.334
144.177
143.992
143.789
143.583
143.39
143.22
143.084
142.98
142.914
142.872
142.854
142.854
142.871
142.925
143.042
143.225
143.434
143.633
143.805
143.942
144.036
144.094
144.664
144.589
144.459
144.301
144.127
143.938
143.748
143.569
143.412
143.281
143.181
143.107
143.055
143.016
142.989
142.976
143
143.09
143.243
143.417
143.581
143.716
143.815
143.881
143.903
144.776
144.712
144.581
144.43
144.263
144.091
143.919
143.757
143.612
143.491
143.391
143.316
143.251
143.193
143.141
143.099
143.096
143.157
143.273
143.407
143.529
143.624
143.69
143.717
143.714
144.853
144.812
144.692
144.55
144.4
144.244
144.089
143.945
143.815
143.703
143.611
143.531
143.459
143.386
143.312
143.243
143.213
143.242
143.316
143.405
143.483
143.539
143.567
143.569
143.535
144.895
144.879
144.788
144.666
144.53
144.39
144.253
144.125
144.011
143.913
143.826
143.75
143.675
143.593
143.495
143.403
143.346
143.339
143.368
143.41
143.446
143.464
143.46
143.428
143.374
144.922
144.921
144.869
144.773
144.655
144.528
144.405
144.292
144.194
144.109
144.034
143.959
143.889
143.801
143.684
143.577
143.49
143.444
143.428
143.426
143.42
143.401
143.362
143.307
143.225
144.948
144.956
144.936
144.871
144.77
144.656
144.546
144.449
144.365
144.296
144.234
144.174
144.107
144.009
143.883
143.762
143.641
143.554
143.496
143.45
143.404
143.348
143.281
143.193
143.091
144.981
144.994
144.992
144.951
144.871
144.773
144.678
144.596
144.529
144.48
144.441
144.397
144.334
144.227
144.098
143.948
143.791
143.665
143.567
143.481
143.396
143.306
143.205
143.097
142.967
145.017
145.031
145.041
145.015
144.949
144.866
144.787
144.724
144.68
144.657
144.643
144.623
144.564
144.451
144.304
144.115
143.927
143.765
143.629
143.507
143.387
143.267
143.144
143.006
142.859
145.052
145.068
145.084
145.064
145.004
144.928
144.86
144.812
144.792
144.798
144.811
144.81
144.754
144.633
144.459
144.242
144.03
143.838
143.671
143.522
143.377
143.234
143.085
142.933
142.761
145.083
145.099
145.11
145.092
145.033
144.96
144.893
144.849
144.839
144.864
144.894
144.908
144.852
144.731
144.539
144.31
144.085
143.877
143.695
143.528
143.365
143.203
143.039
142.862
142.678
145.104
145.111
145.099
145.071
145.022
144.957
144.889
144.837
144.821
144.846
144.883
144.901
144.856
144.737
144.544
144.321
144.098
143.89
143.702
143.524
143.349
143.173
142.992
142.806
142.603
145.101
145.086
145.054
145.024
144.986
144.93
144.858
144.787
144.755
144.769
144.81
144.818
144.784
144.671
144.496
144.292
144.083
143.885
143.695
143.511
143.328
143.143
142.954
142.751
142.541
145.087
145.044
145.001
144.974
144.951
144.901
144.825
144.742
144.682
144.659
144.7
144.703
144.671
144.572
144.423
144.245
144.055
143.865
143.678
143.493
143.306
143.115
142.914
142.708
142.485
145.078
145.019
144.967
144.943
144.93
144.898
144.841
144.758
144.653
144.579
144.583
144.584
144.558
144.478
144.35
144.193
144.02
143.841
143.658
143.472
143.282
143.086
142.883
142.665
142.44
145.086
145.024
144.976
144.958
144.959
144.949
144.922
144.845
144.696
144.585
144.539
144.521
144.489
144.412
144.293
144.149
143.988
143.815
143.635
143.45
143.258
143.06
142.851
142.634
142.401
145.111
145.055
145.02
145.02
145.034
145.047
145.05
144.983
144.81
144.684
144.591
144.532
144.473
144.383
144.261
144.119
143.961
143.792
143.614
143.428
143.236
143.035
142.827
142.604
142.372
145.143
145.096
145.076
145.094
145.127
145.167
145.194
145.147
144.993
144.86
144.718
144.601
144.501
144.383
144.249
144.101
143.941
143.772
143.594
143.408
143.216
143.015
142.804
142.585
142.349
145.163
145.126
145.116
145.152
145.21
145.272
145.323
145.307
145.211
145.07
144.874
144.699
144.548
144.4
144.248
144.09
143.926
143.755
143.576
143.391
143.199
142.998
142.789
142.566
142.334
145.154
145.124
145.121
145.173
145.258
145.345
145.415
145.434
145.405
145.247
145.005
144.779
144.588
144.416
144.249
144.082
143.913
143.74
143.561
143.376
143.185
142.985
142.775
142.558
142.325
145.114
145.082
145.08
145.142
145.255
145.369
145.446
145.498
145.502
145.322
145.061
144.816
144.609
144.423
144.245
144.073
143.901
143.726
143.547
143.363
143.173
142.974
142.768
142.549
142.323
145.039
144.993
144.985
145.053
145.185
145.325
145.427
145.511
145.483
145.298
145.048
144.811
144.604
144.414
144.234
144.059
143.886
143.712
143.534
143.351
143.163
142.967
142.762
142.55
142.324
144.918
144.856
144.833
144.897
145.056
145.222
145.36
145.458
145.4
145.214
144.984
144.767
144.573
144.389
144.213
144.04
143.869
143.696
143.52
143.34
143.154
142.961
142.761
142.55
142.332
144.745
144.672
144.628
144.687
144.869
145.067
145.24
145.313
145.241
145.076
144.881
144.698
144.522
144.351
144.182
144.015
143.847
143.678
143.506
143.329
143.146
142.957
142.76
142.557
142.342
144.541
144.459
144.401
144.448
144.656
144.883
145.052
145.1
145.046
144.926
144.771
144.615
144.459
144.302
144.144
143.985
143.823
143.658
143.49
143.317
143.139
142.955
142.764
142.563
142.357
144.346
144.259
144.202
144.238
144.452
144.693
144.848
144.897
144.86
144.771
144.657
144.528
144.391
144.249
144.102
143.951
143.796
143.637
143.474
143.306
143.133
142.954
142.767
142.575
142.373
144.203
144.116
144.069
144.099
144.292
144.523
144.668
144.718
144.699
144.64
144.551
144.443
144.323
144.193
144.057
143.914
143.767
143.614
143.457
143.295
143.127
142.953
142.774
142.585
142.392
144.145
144.059
144.022
144.045
144.199
144.398
144.528
144.577
144.57
144.527
144.456
144.364
144.257
144.139
144.012
143.878
143.738
143.592
143.441
143.284
143.122
142.954
142.779
142.6
142.412
144.177
144.105
144.055
144.07
144.179
144.332
144.435
144.476
144.474
144.438
144.376
144.294
144.197
144.088
143.969
143.842
143.709
143.57
143.424
143.274
143.117
142.955
142.788
142.613
142.434
144.285
144.229
144.174
144.176
144.23
144.325
144.39
144.413
144.404
144.368
144.31
144.234
144.143
144.041
143.929
143.809
143.682
143.548
143.409
143.264
143.114
142.958
142.796
142.629
142.456
144.423
144.39
144.342
144.329
144.319
144.358
144.382
144.379
144.356
144.315
144.257
144.183
144.096
143.999
143.893
143.778
143.656
143.529
143.395
143.255
143.111
142.961
142.806
142.644
142.48
144.552
144.539
144.519
144.483
144.418
144.404
144.388
144.361
144.325
144.276
144.215
144.141
144.057
143.963
143.86
143.75
143.633
143.51
143.382
143.248
143.109
142.965
142.815
142.662
142.503
144.646
144.646
144.656
144.601
144.494
144.445
144.399
144.353
144.304
144.247
144.181
144.107
144.023
143.931
143.832
143.725
143.613
143.494
143.37
143.241
143.108
142.969
142.826
142.678
142.527
144.702
144.709
144.73
144.66
144.537
144.471
144.407
144.348
144.288
144.224
144.154
144.077
143.994
143.903
143.806
143.703
143.594
143.48
143.36
143.236
143.107
142.974
142.837
142.696
142.551
144.73
144.742
144.753
144.675
144.555
144.481
144.41
144.342
144.274
144.205
144.131
144.053
143.969
143.879
143.784
143.683
143.578
143.467
143.352
143.232
143.108
142.98
142.849
142.713
142.575
144.735
144.758
144.756
144.667
144.566
144.484
144.407
144.334
144.261
144.187
144.111
144.03
143.946
143.858
143.764
143.666
143.563
143.456
143.344
143.229
143.11
142.987
142.86
142.731
142.598
144.725
144.752
144.748
144.65
144.565
144.479
144.398
144.321
144.246
144.169
144.091
144.01
143.926
143.838
143.746
143.65
143.55
143.446
143.338
143.227
143.112
142.994
142.873
142.748
142.622
144.708
144.731
144.728
144.622
144.545
144.463
144.383
144.306
144.229
144.151
144.072
143.99
143.906
143.819
143.729
143.635
143.537
143.436
143.332
143.225
143.114
143.001
142.884
142.766
142.644
144.694
144.709
144.693
144.592
144.52
144.443
144.364
144.287
144.21
144.132
144.052
143.971
143.887
143.802
143.713
143.621
143.526
143.428
143.327
143.223
143.117
143.008
142.896
142.782
142.667
144.681
144.693
144.655
144.569
144.496
144.42
144.343
144.267
144.19
144.112
144.033
143.951
143.869
143.784
143.697
143.608
143.515
143.42
143.323
143.223
143.12
143.015
142.908
142.799
142.688
144.665
144.68
144.621
144.553
144.474
144.397
144.321
144.245
144.168
144.091
144.012
143.932
143.851
143.767
143.682
143.595
143.505
143.413
143.318
143.222
143.123
143.022
142.92
142.815
142.709
144.652
144.669
144.587
144.53
144.452
144.373
144.297
144.222
144.146
144.069
143.992
143.913
143.833
143.751
143.668
143.582
143.495
143.406
143.315
143.222
143.126
143.03
142.931
142.831
142.73
144.648
144.658
144.556
144.503
144.426
144.348
144.273
144.198
144.122
144.047
143.97
143.893
143.815
143.735
143.653
143.57
143.486
143.399
143.311
143.221
143.13
143.037
142.942
142.846
142.75
144.652
144.645
144.531
144.474
144.399
144.322
144.247
144.172
144.098
144.024
143.949
143.873
143.797
143.719
143.639
143.559
143.477
143.393
143.308
143.221
143.133
143.044
142.953
142.862
142.769
144.651
144.626
144.513
144.446
144.37
144.293
144.219
144.146
144.073
144
143.927
143.853
143.778
143.703
143.626
143.547
143.468
143.387
143.305
143.221
143.137
143.051
142.964
142.876
142.788
144.638
144.596
144.491
144.414
144.339
144.263
144.189
144.117
144.046
143.975
143.904
143.832
143.76
143.686
143.612
143.536
143.459
143.381
143.302
143.222
143.14
143.058
142.974
142.89
142.806
144.611
144.554
144.46
144.379
144.303
144.229
144.157
144.087
144.018
143.95
143.881
143.811
143.741
143.67
143.598
143.525
143.45
143.375
143.299
143.221
143.143
143.064
142.984
142.903
142.823
144.568
144.498
144.416
144.336
144.263
144.192
144.123
144.056
143.989
143.923
143.857
143.789
143.722
143.653
143.583
143.513
143.441
143.369
143.295
143.221
143.145
143.069
142.992
142.916
142.838
144.505
144.432
144.363
144.289
144.22
144.153
144.088
144.023
143.959
143.896
143.832
143.767
143.702
143.636
143.569
143.501
143.432
143.362
143.291
143.22
143.147
143.074
143.001
142.927
142.853
144.429
144.363
144.304
144.238
144.175
144.112
144.051
143.99
143.929
143.868
143.807
143.745
143.682
143.619
143.554
143.489
143.423
143.355
143.287
143.219
143.149
143.079
143.008
142.937
142.867
144.35
144.295
144.244
144.186
144.129
144.071
144.014
143.956
143.899
143.841
143.782
143.723
143.663
143.602
143.54
143.477
143.413
143.349
143.283
143.217
143.15
143.083
143.015
142.947
142.88
144.273
144.228
144.185
144.133
144.083
144.03
143.977
143.924
143.87
143.815
143.759
143.702
143.644
143.586
143.526
143.466
143.404
143.342
143.28
143.216
143.152
143.087
143.022
142.957
142.893
144.201
144.164
144.128
144.083
144.038
143.991
143.942
143.892
143.841
143.789
143.736
143.682
143.627
143.571
143.513
143.455
143.396
143.336
143.276
143.215
143.153
143.091
143.029
142.967
142.905
144.134
144.104
144.074
144.035
143.996
143.953
143.908
143.862
143.814
143.765
143.715
143.663
143.61
143.556
143.501
143.445
143.389
143.331
143.273
143.214
143.155
143.096
143.036
142.977
142.917
144.074
144.049
144.024
143.99
143.955
143.916
143.876
143.833
143.788
143.742
143.694
143.645
143.594
143.543
143.49
143.436
143.382
143.326
143.271
143.214
143.157
143.1
143.043
142.986
142.929
144.019
143.998
143.977
143.948
143.917
143.881
143.844
143.804
143.762
143.719
143.674
143.627
143.579
143.53
143.479
143.427
143.375
143.322
143.268
143.214
143.159
143.105
143.05
142.995
142.94
143.969
143.952
143.934
143.908
143.88
143.847
143.813
143.776
143.737
143.697
143.654
143.61
143.564
143.517
143.468
143.419
143.368
143.317
143.266
143.213
143.161
143.108
143.056
143.003
142.95
143.925
143.91
143.894
143.87
143.845
143.815
143.783
143.749
143.713
143.674
143.634
143.592
143.548
143.503
143.457
143.41
143.361
143.312
143.263
143.212
143.162
143.111
143.06
143.01
142.959
143.885
143.872
143.857
143.835
143.812
143.784
143.755
143.723
143.689
143.653
143.614
143.574
143.533
143.49
143.446
143.4
143.354
143.307
143.259
143.21
143.162
143.113
143.064
143.015
142.966
143.85
143.838
143.825
143.804
143.782
143.756
143.729
143.698
143.666
143.632
143.596
143.557
143.518
143.477
143.435
143.391
143.346
143.301
143.255
143.208
143.161
143.114
143.066
143.019
142.972
143.82
143.808
143.796
143.776
143.756
143.732
143.705
143.677
143.646
143.613
143.578
143.542
143.504
143.465
143.424
143.382
143.339
143.295
143.251
143.206
143.16
143.115
143.069
143.023
142.978
143.794
143.783
143.772
143.753
143.735
143.711
143.686
143.659
143.629
143.598
143.564
143.529
143.492
143.454
143.415
143.375
143.333
143.291
143.247
143.204
143.16
143.116
143.071
143.027
142.983
143.772
143.762
143.753
143.735
143.718
143.696
143.672
143.645
143.617
143.586
143.553
143.519
143.483
143.446
143.408
143.369
143.328
143.287
143.245
143.203
143.16
143.117
143.075
143.031
142.989
143.755
143.746
143.738
143.721
143.705
143.684
143.661
143.635
143.607
143.577
143.545
143.512
143.477
143.441
143.403
143.364
143.325
143.285
143.244
143.203
143.161
143.12
143.078
143.037
142.995
143.742
143.734
143.727
143.711
143.696
143.676
143.653
143.628
143.601
143.571
143.539
143.507
143.472
143.436
143.399
143.362
143.323
143.284
143.244
143.204
143.163
143.123
143.082
143.041
143.001
143.733
143.726
143.719
143.704
143.689
143.669
143.647
143.622
143.595
143.566
143.535
143.502
143.468
143.433
143.396
143.359
143.321
143.283
143.244
143.204
143.165
143.125
143.085
143.046
143.006
143.729
143.72
143.714
143.698
143.682
143.662
143.64
143.616
143.589
143.56
143.529
143.497
143.464
143.429
143.393
143.357
143.319
143.282
143.243
143.205
143.166
143.127
143.088
143.049
143.01
143.727
143.717
143.71
143.692
143.676
143.656
143.633
143.608
143.582
143.553
143.523
143.491
143.458
143.424
143.389
143.353
143.317
143.279
143.242
143.204
143.165
143.127
143.088
143.05
143.012
143.726
143.716
143.708
143.689
143.671
143.649
143.626
143.601
143.574
143.546
143.516
143.485
143.453
143.419
143.385
143.349
143.313
143.276
143.239
143.202
143.164
143.126
143.088
143.05
143.013
143.733
143.718
143.711
143.689
143.668
143.645
143.62
143.595
143.568
143.539
143.51
143.479
143.447
143.414
143.38
143.345
143.31
143.274
143.237
143.2
143.162
143.125
143.087
143.05
143.012
143.77
143.736
143.719
143.693
143.667
143.642
143.617
143.59
143.563
143.535
143.506
143.475
143.443
143.411
143.377
143.343
143.307
143.271
143.235
143.198
143.161
143.124
143.086
143.049
143.012
143.845
143.766
143.725
143.695
143.667
143.641
143.615
143.589
143.562
143.533
143.504
143.474
143.442
143.41
143.376
143.342
143.306
143.271
143.234
143.198
143.16
143.123
143.086
143.049
143.012
144.539
144.539
144.538
144.537
144.535
144.532
144.528
144.522
144.516
144.51
144.509
144.518
144.538
144.566
144.598
144.625
144.641
144.64
144.618
144.582
144.541
144.515
144.513
144.525
144.535
144.536
144.537
144.538
144.538
144.537
144.532
144.523
144.507
144.487
144.467
144.456
144.457
144.471
144.494
144.524
144.554
144.579
144.59
144.581
144.554
144.522
144.503
144.503
144.517
144.53
144.53
144.532
144.534
144.534
144.527
144.512
144.487
144.454
144.416
144.382
144.358
144.349
144.355
144.372
144.398
144.431
144.465
144.494
144.512
144.515
144.506
144.499
144.504
144.516
144.525
144.522
144.524
144.525
144.52
144.504
144.474
144.432
144.378
144.319
144.264
144.221
144.195
144.191
144.203
144.229
144.268
144.313
144.361
144.406
144.446
144.477
144.501
144.516
144.523
144.524
144.515
144.517
144.514
144.502
144.474
144.43
144.368
144.291
144.207
144.127
144.061
144.019
144.005
144.015
144.043
144.088
144.146
144.209
144.277
144.345
144.412
144.474
144.517
144.53
144.525
144.513
144.513
144.505
144.485
144.447
144.388
144.307
144.207
144.097
143.989
143.899
143.838
143.81
143.815
143.846
143.901
143.972
144.053
144.139
144.228
144.321
144.411
144.489
144.529
144.527
144.516
144.514
144.501
144.474
144.427
144.356
144.259
144.138
144.001
143.865
143.749
143.667
143.627
143.623
143.653
143.715
143.802
143.901
144.002
144.106
144.215
144.324
144.428
144.505
144.523
144.525
144.521
144.503
144.471
144.419
144.342
144.236
144.098
143.94
143.777
143.634
143.531
143.476
143.462
143.483
143.545
143.643
143.759
143.875
143.988
144.105
144.225
144.341
144.439
144.485
144.541
144.533
144.513
144.479
144.427
144.351
144.243
144.099
143.926
143.741
143.573
143.447
143.375
143.348
143.354
143.404
143.505
143.636
143.768
143.888
144.008
144.134
144.254
144.355
144.411
144.561
144.552
144.529
144.497
144.45
144.379
144.279
144.139
143.96
143.762
143.572
143.425
143.334
143.294
143.291
143.322
143.416
143.555
143.702
143.828
143.948
144.072
144.191
144.285
144.338
144.583
144.573
144.551
144.522
144.481
144.422
144.336
144.212
144.043
143.843
143.641
143.469
143.351
143.292
143.284
143.314
143.403
143.544
143.696
143.825
143.939
144.054
144.165
144.249
144.297
144.604
144.595
144.575
144.549
144.515
144.467
144.399
144.3
144.157
143.974
143.779
143.596
143.456
143.377
143.358
143.388
143.471
143.604
143.75
143.876
143.98
144.081
144.177
144.251
144.295
144.624
144.618
144.6
144.575
144.545
144.506
144.452
144.376
144.268
144.121
143.951
143.781
143.639
143.546
143.513
143.535
143.606
143.723
143.853
143.968
144.061
144.147
144.227
144.287
144.329
144.643
144.639
144.622
144.597
144.567
144.533
144.489
144.43
144.352
144.245
144.115
143.974
143.846
143.752
143.709
143.719
143.777
143.875
143.987
144.087
144.17
144.244
144.311
144.361
144.398
144.66
144.655
144.633
144.605
144.577
144.546
144.508
144.463
144.408
144.336
144.245
144.14
144.036
143.951
143.905
143.905
143.949
144.028
144.124
144.214
144.293
144.364
144.429
144.478
144.507
144.678
144.665
144.635
144.603
144.576
144.549
144.518
144.482
144.444
144.398
144.339
144.266
144.187
144.117
144.074
144.065
144.093
144.157
144.241
144.329
144.416
144.503
144.585
144.647
144.68
144.705
144.679
144.64
144.604
144.573
144.546
144.52
144.493
144.466
144.437
144.399
144.349
144.29
144.232
144.191
144.177
144.197
144.249
144.328
144.426
144.535
144.654
144.772
144.868
144.918
144.74
144.711
144.668
144.622
144.574
144.529
144.492
144.468
144.455
144.444
144.424
144.392
144.349
144.301
144.261
144.244
144.259
144.309
144.393
144.507
144.648
144.808
144.969
145.102
145.181
144.785
144.758
144.714
144.664
144.603
144.533
144.464
144.425
144.418
144.421
144.418
144.401
144.371
144.332
144.295
144.276
144.288
144.341
144.436
144.575
144.747
144.943
145.139
145.304
145.403
144.832
144.825
144.792
144.745
144.681
144.577
144.465
144.392
144.364
144.363
144.369
144.369
144.353
144.325
144.295
144.279
144.291
144.346
144.451
144.604
144.801
145.023
145.245
145.432
145.542
144.835
144.859
144.85
144.819
144.758
144.642
144.494
144.385
144.335
144.324
144.323
144.314
144.292
144.26
144.23
144.215
144.232
144.293
144.406
144.575
144.787
145.026
145.265
145.47
145.589
144.848
144.841
144.829
144.808
144.754
144.651
144.513
144.395
144.317
144.27
144.233
144.198
144.155
144.111
144.076
144.062
144.083
144.151
144.275
144.452
144.676
144.928
145.18
145.396
145.53
144.782
144.798
144.793
144.767
144.704
144.601
144.47
144.343
144.24
144.158
144.089
144.02
143.954
143.893
143.847
143.826
143.842
143.905
144.023
144.199
144.421
144.674
144.931
145.155
145.291
144.751
144.783
144.776
144.737
144.658
144.541
144.398
144.251
144.116
143.996
143.884
143.781
143.683
143.595
143.527
143.486
143.483
143.525
143.622
143.772
143.972
144.205
144.45
144.674
144.836
144.683
144.723
144.721
144.677
144.586
144.45
144.281
144.103
143.932
143.77
143.619
143.474
143.34
143.218
143.115
143.039
142.995
142.992
143.036
143.13
143.27
143.441
143.628
143.807
143.925
144.599
144.636
144.624
144.561
144.445
144.283
144.09
143.885
143.682
143.485
143.294
143.111
142.933
142.766
142.612
142.479
142.368
142.286
142.236
142.221
142.237
142.274
142.321
142.375
142.465
144.475
144.494
144.461
144.372
144.231
144.048
143.837
143.613
143.384
143.155
142.929
142.701
142.475
142.25
142.028
141.811
141.6
141.393
141.191
140.99
140.78
140.544
140.257
139.923
139.502
144.308
144.301
144.24
144.127
143.968
143.771
143.548
143.309
143.058
142.8
142.534
142.261
141.976
141.68
141.37
141.043
140.693
140.31
139.881
139.389
138.799
138.073
137.135
136.058
134.704
144.105
144.069
143.985
143.855
143.684
143.479
143.246
142.992
142.72
142.43
142.124
141.795
141.444
141.063
140.645
140.18
139.653
139.039
138.298
137.381
136.189
134.607
132.277
129.163
123.326
143.886
143.827
143.725
143.582
143.402
143.189
142.945
142.673
142.376
142.051
141.695
141.309
140.88
140.401
139.858
139.231
138.49
137.591
136.454
134.974
132.924
130.093
125.417
119.774
101.175
143.671
143.592
143.475
143.321
143.131
142.906
142.646
142.353
142.025
141.66
141.256
140.8
140.289
139.702
139.021
138.213
137.23
136.003
134.408
132.258
129.092
124.42
115.026
99.1522
40.6869
143.472
143.374
143.242
143.075
142.87
142.629
142.349
142.03
141.67
141.263
140.802
140.281
139.68
138.981
138.156
137.158
135.924
134.357
132.293
129.479
125.348
119.161
108.353
90.7559
60.9027
143.288
143.172
143.023
142.838
142.616
142.356
142.054
141.708
141.313
140.863
140.351
139.758
139.07
138.261
137.291
136.108
134.633
132.748
130.273
126.932
122.254
115.552
105.841
91.3645
73.8378
143.119
142.983
142.815
142.612
142.371
142.09
141.765
141.392
140.964
140.473
139.905
139.25
138.477
137.562
136.457
135.102
133.408
131.247
128.434
124.695
119.64
112.692
103.17
89.8521
72.8266
142.962
142.806
142.619
142.397
142.137
141.836
141.489
141.089
140.63
140.099
139.486
138.765
137.918
136.906
135.68
134.173
132.288
129.894
126.802
122.751
117.375
110.175
100.56
87.7359
71.5229
142.819
142.643
142.437
142.197
141.919
141.599
141.231
140.807
140.318
139.752
139.092
138.321
137.406
136.311
134.983
133.348
131.307
128.723
125.409
121.102
115.463
108.034
98.309
85.6992
70.0257
142.69
142.496
142.272
142.015
141.72
141.382
140.994
140.548
140.033
139.437
138.743
137.924
136.956
135.795
134.385
132.652
130.492
127.764
124.275
119.771
113.897
106.202
96.1796
83.2091
67.1863
142.575
142.364
142.125
141.852
141.541
141.187
140.782
140.317
139.782
139.161
138.436
137.588
136.578
135.37
133.904
132.105
129.863
127.039
123.434
118.776
112.701
104.713
94.256
80.4325
63.2784
142.474
142.248
141.994
141.708
141.384
141.016
140.597
140.118
139.567
138.928
138.188
137.314
136.283
135.049
133.554
131.723
129.445
126.578
122.902
118.153
111.869
103.557
92.4375
77.2406
58.2097
142.387
142.147
141.881
141.584
141.249
140.87
140.441
139.952
139.391
138.745
137.992
137.114
136.075
134.837
133.344
131.52
129.259
126.414
122.759
117.995
111.525
102.83
90.2137
72.7182
49.0318
142.311
142.061
141.786
141.479
141.136
140.751
140.315
139.821
139.256
138.608
137.858
136.982
135.956
134.737
133.276
131.501
129.316
126.581
123.077
118.509
112.2
103.502
89.3303
69.1874
31.7439
142.248
141.99
141.707
141.394
141.046
140.656
140.219
139.725
139.163
138.52
137.779
136.924
135.922
134.745
133.343
131.658
129.603
127.064
123.866
119.746
114.217
106.666
94.4554
76.5573
27.064
142.195
141.932
141.644
141.327
140.977
140.587
140.152
139.662
139.108
138.477
137.759
136.928
135.969
134.849
133.53
131.963
130.083
127.801
124.988
121.479
116.994
111.207
103.317
93.6813
74.3875
142.154
141.887
141.597
141.279
140.929
140.542
140.112
139.631
139.09
138.479
137.784
136.994
136.085
135.035
133.815
132.386
130.702
128.7
126.305
123.412
119.898
115.616
110.371
104.178
96.5165
142.122
141.854
141.564
141.247
140.901
140.52
140.098
139.629
139.106
138.518
137.858
137.108
136.258
135.288
134.174
132.891
131.407
129.685
127.681
125.355
122.661
119.592
116.2
112.761
109.839
142.1
141.833
141.544
141.231
140.891
140.517
140.107
139.654
139.151
138.591
137.965
137.266
136.477
135.589
134.583
133.445
132.154
130.689
129.038
127.18
125.128
122.915
120.642
118.536
116.978
142.086
141.821
141.537
141.229
140.896
140.533
140.136
139.701
139.221
138.691
138.106
137.453
136.729
135.923
135.024
134.022
132.907
131.673
130.314
128.843
127.276
125.67
124.123
122.81
121.957
142.08
141.819
141.54
141.239
140.915
140.564
140.183
139.767
139.312
138.814
138.266
137.666
137.005
136.277
135.478
134.601
133.644
132.606
131.495
130.321
129.118
127.931
126.844
125.968
125.435
142.081
141.825
141.553
141.26
140.947
140.609
140.244
139.849
139.42
138.953