/*--------------------------------*- C++ -*----------------------------------*\
  =========                 |
  \\      /  F ield         | OpenFOAM: The Open Source CFD Toolbox
   \\    /   O peration     | Website:  https://openfoam.org
    \\  /    A nd           | Version:  13
     \\/     M anipulation  |
\*---------------------------------------------------------------------------*/
FoamFile
{
    format      ascii;
    class       surfaceScalarField;
    location    "11";
    object      phi;
}
// * * * * * * * * * * * * * * * * * * * * * * * * * * * * * * * * * * * * * //

dimensions      [0 3 -1 0 0 0 0];

internalField   nonuniform List<scalar> 
12590
(
-6.63313e-08
7.30177e-08
-1.64945e-07
1.00342e-07
-2.69918e-07
1.10571e-07
-3.75026e-07
1.04779e-07
-4.60572e-07
9.04495e-08
-5.29479e-07
6.73832e-08
-5.66983e-07
4.15547e-08
-5.84851e-07
1.67347e-08
-5.78786e-07
-3.40711e-09
-5.65397e-07
-1.3493e-08
-5.43047e-07
-2.04725e-08
-5.15504e-07
-2.6828e-08
-4.82444e-07
-3.17521e-08
-4.40153e-07
-4.2082e-08
-3.75277e-07
-6.39756e-08
-2.81794e-07
-9.40853e-08
-1.59301e-07
-1.2155e-07
-3.11033e-08
-1.2856e-07
7.55928e-08
-1.05271e-07
1.46422e-07
-6.91839e-08
1.83936e-07
-3.63836e-08
1.88461e-07
-1.52662e-09
1.57315e-07
3.2145e-08
9.24105e-08
6.91359e-08
9.33228e-08
-1.02236e-07
1.77752e-07
-2.25383e-07
2.25854e-07
-3.35455e-07
2.21333e-07
-4.23525e-07
1.95499e-07
-4.94009e-07
1.59368e-07
-5.46127e-07
1.24286e-07
-5.74875e-07
6.79902e-08
-5.7479e-07
2.14413e-08
-5.71445e-07
-7.24613e-09
-5.6807e-07
-1.28786e-08
-5.52434e-07
-3.4415e-08
-5.17587e-07
-5.9285e-08
-4.68415e-07
-7.96015e-08
-4.0539e-07
-1.04356e-07
-3.23059e-07
-1.45762e-07
-2.17001e-07
-2.00133e-07
-9.3714e-08
-2.44246e-07
2.07355e-08
-2.42597e-07
1.1438e-07
-1.97439e-07
1.79362e-07
-1.32967e-07
2.08297e-07
-6.35226e-08
1.97188e-07
1.02748e-08
1.55282e-07
7.84179e-08
8.26197e-08
1.43506e-07
1.76817e-07
-3.07162e-08
2.1155e-07
-7.76077e-08
2.73069e-07
-1.09234e-07
2.56657e-07
-1.32647e-07
2.17247e-07
-1.40857e-07
1.74943e-07
-1.53976e-07
1.33812e-07
-1.55712e-07
8.03932e-08
-1.7917e-07
4.38415e-08
-2.08253e-07
3.05023e-08
-2.40556e-07
2.36211e-08
-2.74606e-07
5.98221e-09
-3.13867e-07
-1.74859e-08
-3.25661e-07
-6.60203e-08
-2.91822e-07
-1.37553e-07
-2.2409e-07
-2.12744e-07
-1.20251e-07
-3.03602e-07
-1.87224e-09
-3.61816e-07
9.59143e-08
-3.3927e-07
1.69459e-07
-2.69711e-07
2.11617e-07
-1.73623e-07
2.17439e-07
-6.83236e-08
1.88167e-07
4.27083e-08
1.33225e-07
1.32514e-07
6.54283e-08
2.14452e-07
2.4247e-07
4.82122e-08
1.66397e-07
9.67526e-08
2.26083e-07
1.6267e-07
1.93438e-07
2.5681e-07
1.24331e-07
3.82985e-07
5.04529e-08
5.26628e-07
-8.67757e-09
6.4189e-07
-3.41164e-08
6.94096e-07
-7.29079e-09
6.68689e-07
5.68507e-08
5.65095e-07
1.28328e-07
3.91276e-07
1.8101e-07
1.7465e-07
1.9993e-07
-3.45953e-08
1.44121e-07
-1.44458e-07
-2.70878e-08
-1.12208e-07
-2.43838e-07
-1.49847e-08
-4.00455e-07
8.46909e-08
-4.6062e-07
1.58409e-07
-4.12123e-07
2.08494e-07
-3.18873e-07
2.22829e-07
-1.87126e-07
1.99968e-07
-4.42569e-08
1.53478e-07
8.7945e-08
9.72188e-08
1.93107e-07
3.70838e-08
2.74358e-07
2.80252e-07
5.76501e-08
1.12839e-07
2.00105e-07
8.57823e-08
4.21602e-07
-2.58922e-08
6.7647e-07
-1.29289e-07
9.02157e-07
-1.73885e-07
1.05438e-06
-1.60164e-07
1.11268e-06
-9.13519e-08
1.0923e-06
1.37933e-08
1.00934e-06
1.40321e-07
8.72524e-07
2.65921e-07
6.92724e-07
3.61266e-07
4.86285e-07
4.06168e-07
2.57157e-07
3.73348e-07
2.7342e-08
2.03317e-07
1.13887e-08
-2.25889e-07
8.20464e-08
-4.70951e-07
1.35817e-07
-5.13846e-07
1.77852e-07
-4.53855e-07
2.0218e-07
-3.42571e-07
1.88148e-07
-1.72334e-07
1.42687e-07
1.86638e-09
9.03297e-08
1.44056e-07
3.41617e-08
2.47048e-07
-4.11855e-09
3.15898e-07
2.75963e-07
1.34681e-07
-1.85098e-08
4.27022e-07
-2.04646e-07
7.40607e-07
-3.38151e-07
9.83422e-07
-3.71122e-07
1.13333e-06
-3.22685e-07
1.18826e-06
-2.14304e-07
1.16433e-06
-6.64818e-08
1.0837e-06
9.50956e-08
9.59749e-07
2.65026e-07
8.02966e-07
4.23351e-07
6.24925e-07
5.39147e-07
4.43596e-07
5.87062e-07
2.7226e-07
5.44375e-07
1.18146e-07
3.59083e-07
9.64153e-08
-2.02119e-07
1.13826e-07
-4.88101e-07
1.16167e-07
-5.16289e-07
1.26755e-07
-4.64233e-07
1.26178e-07
-3.41531e-07
8.95086e-08
-1.34965e-07
4.49952e-08
4.91186e-08
-4.48958e-09
1.91971e-07
-3.28527e-08
2.80814e-07
-4.29372e-08
3.24213e-07
2.33861e-07
2.70528e-07
-2.86455e-07
5.77732e-07
-5.10573e-07
7.89059e-07
-5.4805e-07
8.99961e-07
-4.80964e-07
9.31983e-07
-3.53495e-07
9.0497e-07
-1.86188e-07
8.4152e-07
-1.50595e-09
7.51883e-07
1.86137e-07
6.30723e-07
3.87e-07
4.88842e-07
5.66229e-07
3.40816e-07
6.87127e-07
2.03584e-07
7.23456e-07
1.0479e-07
6.43309e-07
8.61237e-08
3.79687e-07
1.14929e-07
-2.28785e-07
6.23621e-08
-4.35551e-07
1.36132e-08
-4.67686e-07
-8.68252e-09
-4.41473e-07
-2.23229e-08
-3.27453e-07
-4.17126e-08
-1.1352e-07
-5.77385e-08
6.60904e-08
-6.63389e-08
2.04009e-07
-7.30828e-08
2.83364e-07
-5.68569e-08
3.11618e-07
1.75928e-07
2.84688e-07
-5.69338e-07
4.75823e-07
-7.00114e-07
5.70876e-07
-6.41619e-07
6.01072e-07
-5.09681e-07
5.82904e-07
-3.33205e-07
5.09122e-07
-1.09677e-07
4.2379e-07
8.77678e-08
3.2377e-07
2.87556e-07
1.98807e-07
5.14418e-07
6.13783e-08
7.04294e-07
-6.18982e-08
8.10916e-07
-1.56923e-07
8.17737e-07
-1.68984e-07
6.55745e-07
-4.33282e-08
2.55221e-07
-4.55001e-08
-2.2507e-07
-1.5565e-07
-3.25308e-07
-2.2474e-07
-3.98396e-07
-2.43944e-07
-4.21862e-07
-2.2235e-07
-3.48326e-07
-1.62273e-07
-1.73053e-07
-1.22261e-07
2.75966e-08
-9.82914e-08
1.76847e-07
-7.33615e-08
2.64288e-07
-4.64861e-08
2.80308e-07
1.30064e-07
1.86657e-07
-7.54242e-07
2.74369e-07
-7.8618e-07
2.90885e-07
-6.56091e-07
2.62406e-07
-4.78871e-07
1.94769e-07
-2.61131e-07
1.06638e-07
-1.61072e-08
1.10224e-09
1.98497e-07
-1.44639e-07
4.34871e-07
-2.95241e-07
6.66528e-07
-4.22233e-07
8.31893e-07
-5.02931e-07
8.92022e-07
-5.24329e-07
8.38769e-07
-4.33655e-07
5.6529e-07
-3.12104e-07
1.34501e-07
-4.04921e-07
-1.31275e-07
-4.89058e-07
-2.40771e-07
-5.2274e-07
-3.64444e-07
-5.17657e-07
-4.26289e-07
-4.57673e-07
-4.07872e-07
-3.33484e-07
-2.96137e-07
-1.93438e-07
-1.12418e-07
-9.66799e-08
8.46835e-08
-4.91985e-08
2.10187e-07
-6.83341e-09
2.42182e-07
1.22503e-07
7.59335e-08
-8.28549e-07
6.39323e-08
-7.7203e-07
1.13629e-08
-6.01247e-07
-6.70387e-08
-3.97606e-07
-1.72019e-07
-1.52697e-07
-2.94252e-07
1.08871e-07
-4.53002e-07
3.58995e-07
-6.22745e-07
6.05503e-07
-7.61836e-07
8.06519e-07
-8.40766e-07
9.11225e-07
-8.65124e-07
9.16768e-07
-8.02968e-07
7.76507e-07
-6.81546e-07
4.44188e-07
-6.62847e-07
1.16616e-07
-7.48893e-07
-4.44274e-08
-7.90295e-07
-1.98768e-07
-8.02474e-07
-3.51887e-07
-7.7773e-07
-4.50404e-07
-6.92602e-07
-4.92392e-07
-5.31504e-07
-4.5643e-07
-3.10278e-07
-3.31877e-07
-1.07682e-07
-1.19771e-07
-2.99538e-09
1.16405e-07
2.59322e-08
2.09778e-07
1.50005e-07
-3.10528e-08
-7.95712e-07
-1.33018e-07
-6.68228e-07
-2.55732e-07
-4.76569e-07
-4.00926e-07
-2.50339e-07
-5.5981e-07
8.15538e-09
-7.22254e-07
2.72578e-07
-8.8642e-07
5.24177e-07
-1.02482e-06
7.44496e-07
-1.1114e-06
8.93708e-07
-1.13876e-06
9.38893e-07
-1.10529e-06
8.83684e-07
-1.00196e-06
6.7325e-07
-9.32778e-07
3.75455e-07
-9.65635e-07
1.50181e-07
-9.94776e-07
-1.45128e-08
-9.95169e-07
-1.97734e-07
-9.88068e-07
-3.5851e-07
-9.54254e-07
-4.83572e-07
-8.73808e-07
-5.72336e-07
-7.22899e-07
-6.06224e-07
-4.97063e-07
-5.56854e-07
-2.22697e-07
-3.89509e-07
-1.37078e-08
-9.7281e-08
3.92702e-08
1.64215e-07
1.89127e-07
-1.33287e-07
-6.60694e-07
-2.93677e-07
-5.0582e-07
-4.72881e-07
-2.95577e-07
-6.6248e-07
-5.90004e-08
-8.48883e-07
1.95868e-07
-1.02101e-06
4.45554e-07
-1.16893e-06
6.72834e-07
-1.27196e-06
8.47973e-07
-1.3117e-06
9.33935e-07
-1.30209e-06
9.29551e-07
-1.23051e-06
8.12481e-07
-1.1452e-06
5.88128e-07
-1.11908e-06
3.49803e-07
-1.12182e-06
1.53532e-07
-1.0967e-06
-3.88963e-08
-1.07202e-06
-2.21757e-07
-1.05019e-06
-3.79753e-07
-1.01492e-06
-5.18296e-07
-9.51967e-07
-6.34846e-07
-8.41326e-07
-7.1626e-07
-6.63486e-07
-7.3369e-07
-4.16429e-07
-6.37437e-07
-1.30585e-07
-3.76838e-07
1.50044e-08
1.56286e-08
2.07433e-07
-1.99358e-07
-4.59194e-07
-4.03653e-07
-2.99634e-07
-6.15629e-07
-8.1669e-08
-8.24793e-07
1.51621e-07
-1.0172e-06
3.89273e-07
-1.184e-06
6.13059e-07
-1.31027e-06
7.99703e-07
-1.38093e-06
9.19047e-07
-1.39433e-06
9.47748e-07
-1.35901e-06
8.9452e-07
-1.28903e-06
7.42863e-07
-1.23282e-06
5.32205e-07
-1.20012e-06
3.17565e-07
-1.15685e-06
1.10886e-07
-1.10884e-06
-8.6156e-08
-1.06995e-06
-2.599e-07
-1.02915e-06
-4.19831e-07
-9.8364e-07
-5.63215e-07
-9.2951e-07
-6.88579e-07
-8.53928e-07
-7.91174e-07
-7.38661e-07
-8.48821e-07
-5.62071e-07
-8.12594e-07
-3.16702e-07
-6.2525e-07
-6.46127e-08
-2.29108e-07
1.43479e-07
-2.27899e-07
-2.28374e-07
-4.61205e-07
-6.37335e-08
-6.8719e-07
1.46006e-07
-8.97655e-07
3.63197e-07
-1.08408e-06
5.76496e-07
-1.23426e-06
7.6383e-07
-1.33433e-06
9.00314e-07
-1.38015e-06
9.65282e-07
-1.38832e-06
9.56329e-07
-1.34985e-06
8.56368e-07
-1.29188e-06
6.85306e-07
-1.23676e-06
4.77437e-07
-1.18173e-06
2.63092e-07
-1.12868e-06
5.85142e-08
-1.08523e-06
-1.28695e-07
-1.03914e-06
-3.05129e-07
-9.85778e-07
-4.72235e-07
-9.26736e-07
-6.21509e-07
-8.62608e-07
-7.51861e-07
-7.92559e-07
-8.60773e-07
-7.10048e-07
-9.30831e-07
-5.93347e-07
-9.30516e-07
-4.06373e-07
-8.08786e-07
-1.44963e-07
-4.91423e-07
8.78893e-10
-2.3991e-07
1.46603e-08
-4.78963e-07
1.76924e-07
-7.02254e-07
3.70202e-07
-9.06509e-07
5.68152e-07
-1.08203e-06
7.52395e-07
-1.21663e-06
8.9904e-07
-1.30327e-06
9.87382e-07
-1.34422e-06
1.00675e-06
-1.34383e-06
9.56348e-07
-1.30491e-06
8.17885e-07
-1.25056e-06
6.31354e-07
-1.19317e-06
4.206e-07
-1.14317e-06
2.13614e-07
-1.10594e-06
2.22364e-08
-1.06578e-06
-1.68046e-07
-1.01115e-06
-3.58555e-07
-9.45554e-07
-5.36817e-07
-8.71033e-07
-6.94729e-07
-7.92896e-07
-8.29226e-07
-7.14469e-07
-9.38128e-07
-6.33388e-07
-1.01179e-06
-5.4388e-07
-1.0191e-06
-4.20214e-07
-9.34852e-07
-2.18185e-07
-6.90243e-07
-2.16818e-07
-2.32108e-07
2.51702e-07
-4.62443e-07
4.09413e-07
-6.7728e-07
5.86358e-07
-8.71323e-07
7.62869e-07
-1.03369e-06
9.16161e-07
-1.1562e-06
1.0218e-06
-1.23461e-06
1.06693e-06
-1.27316e-06
1.04524e-06
-1.26388e-06
9.48251e-07
-1.22659e-06
7.80264e-07
-1.17541e-06
5.81439e-07
-1.13099e-06
3.75903e-07
-1.09985e-06
1.83875e-07
-1.06672e-06
-1.08048e-08
-1.01556e-06
-2.17619e-07
-9.50874e-07
-4.22496e-07
-8.73197e-07
-6.12827e-07
-7.86133e-07
-7.80791e-07
-6.97105e-07
-9.16804e-07
-6.15193e-07
-1.01909e-06
-5.41318e-07
-1.08492e-06
-4.69378e-07
-1.09107e-06
-3.73681e-07
-1.02807e-06
-2.10995e-07
-8.52507e-07
-4.2305e-07
-2.1422e-07
4.71094e-07
-4.29275e-07
6.28678e-07
-6.30521e-07
7.90861e-07
-8.10165e-07
9.46274e-07
-9.60498e-07
1.06718e-06
-1.07196e-06
1.13649e-06
-1.14462e-06
1.13955e-06
-1.17234e-06
1.076e-06
-1.15896e-06
9.33701e-07
-1.12021e-06
7.44491e-07
-1.08132e-06
5.40998e-07
-1.05263e-06
3.50172e-07
-1.02674e-06
1.56308e-07
-9.80167e-07
-5.47124e-08
-9.20694e-07
-2.77222e-07
-8.48549e-07
-4.92575e-07
-7.62939e-07
-6.97243e-07
-6.66443e-07
-8.75507e-07
-5.69266e-07
-1.01259e-06
-4.84323e-07
-1.10265e-06
-4.16253e-07
-1.1507e-06
-3.58324e-07
-1.14594e-06
-3.0127e-07
-1.08442e-06
-1.79649e-07
-9.65711e-07
-6.05261e-07
-1.94805e-07
6.7681e-07
-3.88551e-07
8.29615e-07
-5.71518e-07
9.79926e-07
-7.37096e-07
1.11408e-06
-8.7198e-07
1.20865e-06
-9.74523e-07
1.24084e-06
-1.03493e-06
1.20507e-06
-1.05211e-06
1.09369e-06
-1.0312e-06
9.17456e-07
-9.98628e-07
7.11237e-07
-9.69576e-07
5.1643e-07
-9.49458e-07
3.27416e-07
-9.0934e-07
1.20444e-07
-8.55772e-07
-1.09034e-07
-7.92067e-07
-3.37621e-07
-7.17345e-07
-5.66336e-07
-6.26314e-07
-7.85702e-07
-5.23996e-07
-9.76604e-07
-4.19812e-07
-1.11476e-06
-3.28929e-07
-1.19181e-06
-2.60483e-07
-1.21538e-06
-2.20889e-07
-1.18489e-06
-1.95667e-07
-1.10125e-06
-1.39853e-07
-1.02991e-06
-7.44275e-07
-1.71622e-07
8.54275e-07
-3.4306e-07
1.00673e-06
-5.07804e-07
1.14827e-06
-6.54072e-07
1.26786e-06
-7.76963e-07
1.3342e-06
-8.6408e-07
1.3345e-06
-9.11578e-07
1.257e-06
-9.15634e-07
1.10317e-06
-8.92357e-07
8.9682e-07
-8.63434e-07
6.86783e-07
-8.45162e-07
4.97397e-07
-8.15893e-07
3.03885e-07
-7.67852e-07
7.23301e-08
-7.07969e-07
-1.63931e-07
-6.42839e-07
-4.01296e-07
-5.63465e-07
-6.42289e-07
-4.69338e-07
-8.78838e-07
-3.61665e-07
-1.08216e-06
-2.54681e-07
-1.22184e-06
-1.60043e-07
-1.28454e-06
-9.22637e-08
-1.28433e-06
-4.96737e-08
-1.22351e-06
-4.71618e-08
-1.11687e-06
-3.78702e-08
-1.03672e-06
-7.87382e-07
-1.41821e-07
1.0031e-06
-2.94031e-07
1.16328e-06
-4.3742e-07
1.29685e-06
-5.67519e-07
1.39991e-06
-6.70866e-07
1.44506e-06
-7.42262e-07
1.41166e-06
-7.74937e-07
1.2954e-06
-7.71218e-07
1.10467e-06
-7.48199e-07
8.78282e-07
-7.27926e-07
6.68887e-07
-7.08561e-07
4.83829e-07
-6.75549e-07
2.70855e-07
-6.17351e-07
2.07585e-08
-5.52826e-07
-2.24971e-07
-4.78355e-07
-4.72069e-07
-3.93248e-07
-7.25908e-07
-2.91595e-07
-9.78866e-07
-1.78266e-07
-1.19586e-06
-6.74653e-08
-1.3328e-06
2.45104e-08
-1.3783e-06
8.79038e-08
-1.34868e-06
1.17161e-07
-1.26066e-06
1.25298e-07
-1.12325e-06
7.83364e-08
-9.98899e-07
-7.07487e-07
-8.89782e-08
1.09393e-06
-1.93967e-07
1.27116e-06
-2.90693e-07
1.39588e-06
-3.72727e-07
1.48867e-06
-4.37998e-07
1.51329e-06
-4.79662e-07
1.45979e-06
-4.98536e-07
1.32042e-06
-4.98986e-07
1.11076e-06
-4.94139e-07
8.77863e-07
-4.96506e-07
6.76074e-07
-5.0545e-07
4.92925e-07
-5.05186e-07
2.77808e-07
-4.97316e-07
1.72691e-08
-4.81329e-07
-2.37496e-07
-4.63819e-07
-4.87537e-07
-4.46152e-07
-7.42233e-07
-4.14479e-07
-1.01007e-06
-3.62061e-07
-1.24828e-06
-2.98484e-07
-1.39698e-06
-2.35989e-07
-1.4419e-06
-1.82209e-07
-1.40397e-06
-1.38682e-07
-1.30432e-06
-1.0913e-07
-1.1567e-06
-1.17547e-07
-9.87315e-07
-8.041e-07
-1.77821e-08
-5.42868e-08
1.15327e-06
-1.31944e-07
1.35231e-06
-2.03342e-07
1.47178e-06
-2.66415e-07
1.55233e-06
-3.1178e-07
1.5664e-06
-3.42031e-07
1.49494e-06
-3.54241e-07
1.33883e-06
-3.54697e-07
1.11652e-06
-3.52258e-07
8.80122e-07
-3.55887e-07
6.82e-07
-3.57739e-07
5.01196e-07
-3.58375e-07
2.79291e-07
-3.45718e-07
1.16836e-08
-3.21622e-07
-2.58351e-07
-2.99268e-07
-5.08127e-07
-2.84644e-07
-7.55985e-07
-2.58036e-07
-1.03616e-06
-2.07173e-07
-1.299e-06
-1.41788e-07
-1.4625e-06
-7.48378e-08
-1.50888e-06
-1.32195e-08
-1.46537e-06
4.42387e-08
-1.36147e-06
1.1007e-07
-1.21964e-06
1.82607e-07
-1.05522e-06
-8.71357e-07
2.52075e-07
-2.17698e-08
1.17653e-06
-7.02243e-08
1.40354e-06
-1.17246e-07
1.52013e-06
-1.55707e-07
1.59805e-06
-1.84536e-07
1.59718e-06
-1.9982e-07
1.5167e-06
-2.05867e-07
1.35121e-06
-2.06206e-07
1.12243e-06
-2.03678e-07
8.82257e-07
-1.98983e-07
6.82335e-07
-1.95099e-07
4.96539e-07
-1.83293e-07
2.77775e-07
-1.66106e-07
2.87539e-10
-1.3597e-07
-2.86314e-07
-1.15662e-07
-5.27642e-07
-1.07867e-07
-7.6345e-07
-8.92248e-08
-1.05463e-06
-4.38401e-08
-1.34428e-06
1.86147e-08
-1.52486e-06
8.37774e-08
-1.57369e-06
1.44938e-07
-1.52584e-06
2.02905e-07
-1.41792e-06
2.61321e-07
-1.27414e-06
3.20283e-07
-1.11335e-06
-9.38421e-07
3.91667e-07
1.09933e-08
1.1708e-06
-1.01775e-08
1.42765e-06
-3.08027e-08
1.54533e-06
-4.67521e-08
1.61471e-06
-5.2193e-08
1.61013e-06
-5.33982e-08
1.52391e-06
-5.24535e-08
1.35604e-06
-5.16699e-08
1.12767e-06
-4.69274e-08
8.82288e-07
-2.80369e-08
6.65135e-07
1.77237e-08
4.59687e-07
7.02606e-08
2.24513e-07
7.57396e-08
2.59444e-09
6.94357e-08
-2.79138e-07
7.1027e-08
-5.29195e-07
6.62495e-08
-7.58738e-07
7.38229e-08
-1.06221e-06
1.10754e-07
-1.38116e-06
1.67974e-07
-1.58195e-06
2.31308e-07
-1.63672e-06
2.93977e-07
-1.58767e-06
3.557e-07
-1.47768e-06
4.1636e-07
-1.33482e-06
4.8208e-07
-1.17358e-06
-1.01187e-06
5.55356e-07
4.27967e-08
1.12872e-06
4.89526e-08
1.42384e-06
5.15802e-08
1.54461e-06
6.4729e-08
1.60856e-06
7.87387e-08
1.59851e-06
9.37095e-08
1.51511e-06
1.04644e-07
1.35103e-06
1.07814e-07
1.12969e-06
1.08994e-07
8.847e-07
1.2376e-07
6.54859e-07
1.48825e-07
4.30223e-07
1.72001e-07
2.09459e-07
2.07298e-07
-3.3864e-08
2.34186e-07
-3.0603e-07
2.36837e-07
-5.31811e-07
2.24251e-07
-7.46188e-07
2.20997e-07
-1.05894e-06
2.50122e-07
-1.41023e-06
3.0461e-07
-1.63632e-06
3.69615e-07
-1.70142e-06
4.37567e-07
-1.65499e-06
5.06132e-07
-1.54604e-06
5.79206e-07
-1.40394e-06
6.55312e-07
-1.2518e-06
-1.09594e-06
7.42389e-07
7.67681e-08
1.05771e-06
1.07446e-07
1.39659e-06
1.35097e-07
1.52158e-06
1.66111e-07
1.57743e-06
2.02376e-07
1.56998e-06
2.34801e-07
1.48655e-06
2.6052e-07
1.3304e-06
2.73545e-07
1.12025e-06
2.78416e-07
8.82725e-07
2.86453e-07
6.45874e-07
3.10574e-07
4.12815e-07
3.41358e-07
1.72278e-07
3.8758e-07
-7.837e-08
4.08373e-07
-3.26337e-07
3.99145e-07
-5.22428e-07
3.70714e-07
-7.17655e-07
3.54694e-07
-1.04288e-06
3.79992e-07
-1.43551e-06
4.38052e-07
-1.69436e-06
5.11097e-07
-1.77432e-06
5.89574e-07
-1.73317e-06
6.71877e-07
-1.62687e-06
7.57335e-07
-1.4914e-06
8.54475e-07
-1.34444e-06
-1.20489e-06
9.61942e-07
1.09231e-07
9.499e-07
1.64688e-07
1.34402e-06
2.11116e-07
1.47617e-06
2.64845e-07
1.53116e-06
3.16031e-07
1.51964e-06
3.67635e-07
1.4401e-06
4.09755e-07
1.29242e-06
4.39239e-07
1.09361e-06
4.58317e-07
8.65123e-07
4.79584e-07
6.27349e-07
5.04717e-07
3.80902e-07
5.44746e-07
1.38566e-07
5.74282e-07
-1.09142e-07
5.77833e-07
-3.29859e-07
5.53153e-07
-4.97541e-07
5.07788e-07
-6.7221e-07
4.84182e-07
-1.01922e-06
5.14852e-07
-1.46616e-06
5.84325e-07
-1.76383e-06
6.70279e-07
-1.8602e-06
7.625e-07
-1.82515e-06
8.58887e-07
-1.72379e-06
9.65239e-07
-1.59433e-06
1.08099e-06
-1.46357e-06
-1.33779e-06
1.21632e-06
1.44108e-07
8.12463e-07
2.19456e-07
1.27157e-06
2.8482e-07
1.41536e-06
3.50468e-07
1.46542e-06
4.20281e-07
1.45607e-06
4.85936e-07
1.37837e-06
5.42511e-07
1.23849e-06
5.87891e-07
1.05053e-06
6.23028e-07
8.30649e-07
6.53415e-07
5.9417e-07
6.88482e-07
3.52302e-07
7.17612e-07
1.02434e-07
7.36232e-07
-1.26551e-07
7.29786e-07
-3.23089e-07
6.95833e-07
-4.63396e-07
6.40956e-07
-6.17187e-07
6.22624e-07
-1.00088e-06
6.68874e-07
-1.51247e-06
7.53388e-07
-1.84841e-06
8.51477e-07
-1.95835e-06
9.54927e-07
-1.92855e-06
1.06538e-06
-1.83305e-06
1.18428e-06
-1.71602e-06
1.32099e-06
-1.596e-06
-1.49112e-06
1.47242e-06
1.78422e-07
6.35135e-07
2.72481e-07
1.17984e-06
3.49842e-07
1.33939e-06
4.29233e-07
1.39224e-06
5.08176e-07
1.37819e-06
5.85013e-07
1.30505e-06
6.52832e-07
1.17326e-06
7.0906e-07
9.95411e-07
7.5429e-07
7.85109e-07
7.93819e-07
5.56589e-07
8.22879e-07
3.14792e-07
8.53476e-07
7.73886e-08
8.65394e-07
-1.40171e-07
8.5901e-07
-3.16944e-07
8.26194e-07
-4.30693e-07
7.75339e-07
-5.66528e-07
7.76988e-07
-1.00267e-06
8.43624e-07
-1.57923e-06
9.39762e-07
-1.94467e-06
1.04387e-06
-2.06253e-06
1.15233e-06
-2.03692e-06
1.26747e-06
-1.94914e-06
1.39584e-06
-1.84098e-06
1.53392e-06
-1.7379e-06
-1.6425e-06
1.68757e-06
2.09644e-07
4.32218e-07
3.23479e-07
1.06879e-06
4.11386e-07
1.25561e-06
4.94176e-07
1.30856e-06
5.81578e-07
1.29669e-06
6.6375e-07
1.22447e-06
7.38112e-07
1.10078e-06
8.00515e-07
9.33027e-07
8.51291e-07
7.33579e-07
8.89676e-07
5.13564e-07
9.25724e-07
2.84357e-07
9.49428e-07
4.59394e-08
9.63795e-07
-1.54317e-07
9.63604e-07
-3.1725e-07
9.43559e-07
-4.10989e-07
9.10421e-07
-5.33635e-07
9.41746e-07
-1.03422e-06
1.02722e-06
-1.66487e-06
1.12763e-06
-2.04525e-06
1.22919e-06
-2.1642e-06
1.33337e-06
-2.14122e-06
1.44506e-06
-2.0597e-06
1.56335e-06
-1.96241e-06
1.69325e-06
-1.86369e-06
-1.77729e-06
1.82604e-06
2.25961e-07
2.06541e-07
3.69672e-07
9.27213e-07
4.63236e-07
1.16231e-06
5.52148e-07
1.22587e-06
6.38729e-07
1.20975e-06
7.24255e-07
1.14168e-06
8.00569e-07
1.02548e-06
8.64893e-07
8.68035e-07
9.16646e-07
6.79998e-07
9.60163e-07
4.7064e-07
9.90997e-07
2.44013e-07
1.01811e-06
2.22451e-08
1.03311e-06
-1.71876e-07
1.04399e-06
-3.29139e-07
1.04531e-06
-4.13168e-07
1.04036e-06
-5.29364e-07
1.10555e-06
-1.09979e-06
1.20593e-06
-1.76548e-06
1.30324e-06
-2.14273e-06
1.39377e-06
-2.25486e-06
1.48463e-06
-2.23211e-06
1.57925e-06
-2.1554e-06
1.6816e-06
-2.06154e-06
1.78523e-06
-1.97124e-06
-1.88434e-06
1.89431e-06
2.19236e-07
-4.10933e-09
4.00771e-07
7.47512e-07
5.08882e-07
1.05785e-06
5.96242e-07
1.13791e-06
6.84091e-07
1.12644e-06
7.67855e-07
1.05973e-06
8.42869e-07
9.50269e-07
9.06258e-07
8.03712e-07
9.57256e-07
6.26577e-07
9.97245e-07
4.24888e-07
1.03281e-06
2.11744e-07
1.05324e-06
-6.31503e-09
1.07652e-06
-1.96511e-07
1.10347e-06
-3.57676e-07
1.12737e-06
-4.38222e-07
1.16071e-06
-5.63438e-07
1.26194e-06
-1.20146e-06
1.37364e-06
-1.87745e-06
1.46145e-06
-2.23074e-06
1.53404e-06
-2.32764e-06
1.60425e-06
-2.30247e-06
1.67822e-06
-2.22835e-06
1.75478e-06
-2.1413e-06
1.8398e-06
-2.05239e-06
-1.97432e-06
1.92767e-06
1.76746e-07
-1.81003e-07
4.0148e-07
5.24168e-07
5.37955e-07
9.22473e-07
6.34885e-07
1.04622e-06
7.17898e-07
1.0437e-06
7.96133e-07
9.83217e-07
8.65746e-07
8.80763e-07
9.23734e-07
7.44047e-07
9.70114e-07
5.7717e-07
1.00895e-06
3.85132e-07
1.035e-06
1.75994e-07
1.06044e-06
-3.13089e-08
1.09813e-06
-2.37455e-07
1.14604e-06
-4.07414e-07
1.18903e-06
-4.82705e-07
1.27198e-06
-6.47318e-07
1.41118e-06
-1.34113e-06
1.52958e-06
-1.99611e-06
1.60241e-06
-2.30376e-06
1.65333e-06
-2.37869e-06
1.70136e-06
-2.3505e-06
1.75289e-06
-2.281e-06
1.81402e-06
-2.19931e-06
1.8813e-06
-2.12366e-06
-2.05308e-06
1.96188e-06
1.0554e-07
-2.80981e-07
3.60882e-07
2.71739e-07
5.44331e-07
7.42638e-07
6.62399e-07
9.27295e-07
7.51237e-07
9.60166e-07
8.20743e-07
9.14244e-07
8.78228e-07
8.23418e-07
9.24184e-07
6.96097e-07
9.61647e-07
5.36845e-07
9.9098e-07
3.49695e-07
1.02058e-06
1.46956e-07
1.05603e-06
-7.40179e-08
1.11708e-06
-3.00754e-07
1.17803e-06
-4.70429e-07
1.23277e-06
-5.38963e-07
1.37866e-06
-7.94048e-07
1.55426e-06
-1.51715e-06
1.67096e-06
-2.11304e-06
1.72479e-06
-2.35775e-06
1.75374e-06
-2.40775e-06
1.78199e-06
-2.37892e-06
1.81874e-06
-2.31674e-06
1.86507e-06
-2.24885e-06
1.92799e-06
-2.18293e-06
-2.12896e-06
2.0017e-06
3.6456e-08
-3.17075e-07
2.90177e-07
1.93195e-08
5.09236e-07
5.23851e-07
6.70466e-07
7.72694e-07
7.79243e-07
8.51133e-07
8.54218e-07
8.41662e-07
9.03654e-07
7.7428e-07
9.36296e-07
6.6171e-07
9.59547e-07
5.10674e-07
9.80728e-07
3.26566e-07
1.0053e-06
1.14076e-07
1.05554e-06
-1.2509e-07
1.12442e-06
-3.72758e-07
1.18208e-06
-5.30227e-07
1.26438e-06
-6.22804e-07
1.48689e-06
-1.01737e-06
1.68798e-06
-1.71862e-06
1.7907e-06
-2.21594e-06
1.82358e-06
-2.39075e-06
1.83333e-06
-2.41758e-06
1.84738e-06
-2.39297e-06
1.87215e-06
-2.34257e-06
1.91392e-06
-2.28766e-06
1.96791e-06
-2.24083e-06
-2.19797e-06
2.03856e-06
-2.1721e-08
-2.94574e-07
1.86397e-07
-1.86249e-07
4.30112e-07
2.84753e-07
6.30349e-07
5.72136e-07
7.8041e-07
7.06832e-07
8.78262e-07
7.46187e-07
9.33193e-07
7.19272e-07
9.58352e-07
6.35555e-07
9.66485e-07
5.00026e-07
9.68682e-07
3.19525e-07
9.8308e-07
9.94997e-08
1.01579e-06
-1.6381e-07
1.06866e-06
-4.27896e-07
1.13434e-06
-5.97958e-07
1.3097e-06
-7.99517e-07
1.60404e-06
-1.31238e-06
1.80398e-06
-1.91887e-06
1.87921e-06
-2.29131e-06
1.89103e-06
-2.40266e-06
1.88825e-06
-2.41489e-06
1.89274e-06
-2.39755e-06
1.91212e-06
-2.36096e-06
1.94597e-06
-2.3246e-06
1.99843e-06
-2.28983e-06
-2.26365e-06
2.06195e-06
-4.7458e-08
-2.51167e-07
5.55557e-08
-2.89309e-07
3.15546e-07
2.57375e-08
5.48297e-07
3.4759e-07
7.30085e-07
5.26447e-07
8.56556e-07
6.22922e-07
9.26215e-07
6.50546e-07
9.49912e-07
6.11223e-07
9.4241e-07
5.05314e-07
9.23087e-07
3.37235e-07
8.95045e-07
1.20075e-07
8.75856e-07
-1.45405e-07
9.27649e-07
-4.82957e-07
1.09229e-06
-7.6466e-07
1.40651e-06
-1.11487e-06
1.71854e-06
-1.62495e-06
1.88146e-06
-2.08202e-06
1.92269e-06
-2.33263e-06
1.91988e-06
-2.39991e-06
1.91351e-06
-2.40854e-06
1.91489e-06
-2.39885e-06
1.93079e-06
-2.37789e-06
1.96499e-06
-2.35592e-06
2.01097e-06
-2.33963e-06
-2.32344e-06
2.07225e-06
-8.13642e-09
-2.45579e-07
5.90999e-09
-3.03771e-07
2.20454e-07
-1.7987e-07
4.5623e-07
1.10866e-07
6.48745e-07
3.42883e-07
7.84549e-07
4.89074e-07
8.63953e-07
5.73028e-07
8.86997e-07
5.87265e-07
8.64966e-07
5.25799e-07
8.17178e-07
3.81151e-07
7.08472e-07
2.28306e-07
6.68449e-07
-1.11979e-07
8.44321e-07
-6.60883e-07
1.17012e-06
-1.09202e-06
1.53879e-06
-1.48443e-06
1.79812e-06
-1.88469e-06
1.90782e-06
-2.1919e-06
1.9246e-06
-2.34948e-06
1.91785e-06
-2.3932e-06
1.91228e-06
-2.40299e-06
1.91508e-06
-2.40174e-06
1.9336e-06
-2.39541e-06
1.96523e-06
-2.39055e-06
2.01308e-06
-2.38425e-06
-2.38249e-06
2.06999e-06
4.18243e-08
-2.94494e-07
1.17152e-07
-3.79084e-07
2.57297e-07
-3.21881e-07
4.5838e-07
-7.67683e-08
6.04564e-07
1.97617e-07
7.08911e-07
3.89232e-07
7.67475e-07
5.15753e-07
7.74333e-07
5.7981e-07
7.40716e-07
5.58047e-07
6.64761e-07
4.54859e-07
4.74652e-07
4.09247e-07
5.87019e-07
-2.25297e-07
9.29472e-07
-1.00629e-06
1.31232e-06
-1.47635e-06
1.62772e-06
-1.80057e-06
1.81875e-06
-2.07606e-06
1.89187e-06
-2.26515e-06
1.8982e-06
-2.35584e-06
1.89186e-06
-2.38689e-06
1.8897e-06
-2.40082e-06
1.89834e-06
-2.41031e-06
1.92034e-06
-2.41837e-06
1.95711e-06
-2.42463e-06
2.00217e-06
-2.43295e-06
-2.43834e-06
2.05936e-06
5.83731e-08
-3.57311e-07
1.59208e-07
-4.8237e-07
2.87002e-07
-4.42615e-07
4.63371e-07
-2.53798e-07
5.86923e-07
8.21965e-08
6.46858e-07
3.32759e-07
6.68986e-07
4.93309e-07
6.56856e-07
5.91206e-07
6.08014e-07
6.04374e-07
4.80955e-07
5.76414e-07
3.37471e-07
5.4989e-07
6.674e-07
-5.61229e-07
1.06851e-06
-1.40858e-06
1.40276e-06
-1.81157e-06
1.64642e-06
-2.04481e-06
1.78212e-06
-2.21203e-06
1.83108e-06
-2.31423e-06
1.83964e-06
-2.36445e-06
1.84209e-06
-2.38936e-06
1.85063e-06
-2.4094e-06
1.8694e-06
-2.42912e-06
1.89952e-06
-2.44754e-06
1.93723e-06
-2.46519e-06
1.986e-06
-2.47868e-06
-2.49459e-06
2.04019e-06
4.75937e-08
-4.1019e-07
1.2032e-07
-5.55766e-07
2.05337e-07
-5.29012e-07
3.69347e-07
-4.06499e-07
5.13425e-07
-6.00327e-08
5.7186e-07
2.75109e-07
5.83783e-07
4.80885e-07
5.60077e-07
6.12678e-07
4.68393e-07
6.92144e-07
2.53591e-07
7.8665e-07
3.67616e-07
4.22233e-07
8.106e-07
-1.00405e-06
1.17409e-06
-1.77436e-06
1.44188e-06
-2.08049e-06
1.62049e-06
-2.22402e-06
1.71477e-06
-2.3066e-06
1.75318e-06
-2.35277e-06
1.76944e-06
-2.38079e-06
1.78522e-06
-2.40519e-06
1.80731e-06
-2.43151e-06
1.83668e-06
-2.45839e-06
1.8719e-06
-2.4837e-06
1.91478e-06
-2.50548e-06
1.96065e-06
-2.52804e-06
-2.54747e-06
2.01475e-06
3.24625e-08
-4.4862e-07
6.94911e-08
-5.9633e-07
1.23014e-07
-5.78085e-07
2.37997e-07
-5.24317e-07
4.10603e-07
-2.2663e-07
4.90721e-07
1.94318e-07
5.05691e-07
4.63418e-07
4.6365e-07
6.49643e-07
3.43781e-07
8.07121e-07
1.91021e-07
9.29237e-07
5.66316e-07
4.58672e-08
9.72386e-07
-1.41579e-06
1.2589e-06
-2.06204e-06
1.45304e-06
-2.27555e-06
1.57405e-06
-2.3456e-06
1.63941e-06
-2.3723e-06
1.6758e-06
-2.38936e-06
1.70421e-06
-2.40932e-06
1.73412e-06
-2.4352e-06
1.76743e-06
-2.46487e-06
1.80362e-06
-2.49467e-06
1.84321e-06
-2.5224e-06
1.88422e-06
-2.54922e-06
1.9318e-06
-2.5728e-06
-2.59964e-06
1.98199e-06
1.38085e-08
-4.6735e-07
2.70457e-08
-6.10721e-07
5.87488e-08
-6.13004e-07
1.31376e-07
-5.88939e-07
3.00423e-07
-3.98027e-07
3.94701e-07
9.77336e-08
4.06963e-07
4.45881e-07
3.62234e-07
6.88516e-07
2.92589e-07
8.67608e-07
3.02071e-07
9.123e-07
7.68395e-07
-4.2945e-07
1.11456e-06
-1.76202e-06
1.31944e-06
-2.26903e-06
1.44587e-06
-2.40318e-06
1.52444e-06
-2.4249e-06
1.57621e-06
-2.42451e-06
1.61693e-06
-2.43036e-06
1.65534e-06
-2.44793e-06
1.69395e-06
-2.47394e-06
1.73249e-06
-2.50348e-06
1.771e-06
-2.53315e-06
1.80967e-06
-2.56197e-06
1.85203e-06
-2.58919e-06
1.89502e-06
-2.61909e-06
-2.64771e-06
1.9442e-06
-1.25283e-08
-4.61107e-07
-2.03078e-08
-6.06403e-07
-3.07705e-09
-6.27588e-07
1.75366e-08
-6.12734e-07
1.54345e-07
-5.35845e-07
2.72031e-07
-2.49252e-08
3.16795e-07
3.93919e-07
3.32921e-07
6.64046e-07
3.31851e-07
8.59258e-07
5.24035e-07
7.04223e-07
9.75116e-07
-8.81475e-07
1.23838e-06
-2.02987e-06
1.36856e-06
-2.40067e-06
1.44345e-06
-2.47919e-06
1.4954e-06
-2.47762e-06
1.53913e-06
-2.46877e-06
1.58095e-06
-2.47255e-06
1.62203e-06
-2.48927e-06
1.66164e-06
-2.51374e-06
1.69948e-06
-2.54146e-06
1.73635e-06
-2.57014e-06
1.77434e-06
-2.59915e-06
1.81252e-06
-2.62996e-06
1.85598e-06
-2.65993e-06
-2.69452e-06
1.90091e-06
-4.99061e-08
-4.14115e-07
-8.30221e-08
-5.75074e-07
-7.84212e-08
-6.34639e-07
-6.00031e-08
-6.29968e-07
1.0549e-09
-6.03172e-07
1.64133e-07
-1.96552e-07
2.66815e-07
2.82695e-07
3.44021e-07
5.77705e-07
4.03667e-07
7.88115e-07
8.05173e-07
2.95264e-07
1.17476e-06
-1.25719e-06
1.35016e-06
-2.2061e-06
1.41851e-06
-2.47089e-06
1.45553e-06
-2.51746e-06
1.48817e-06
-2.51114e-06
1.52295e-06
-2.50418e-06
1.55953e-06
-2.50959e-06
1.59596e-06
-2.52604e-06
1.63109e-06
-2.54912e-06
1.66517e-06
-2.57569e-06
1.69935e-06
-2.60432e-06
1.7341e-06
-2.63481e-06
1.77249e-06
-2.66611e-06
1.81102e-06
-2.70161e-06
-2.73701e-06
1.85449e-06
-1.06158e-07
-3.15387e-07
-1.65042e-07
-5.19188e-07
-1.74879e-07
-6.2489e-07
-1.40404e-07
-6.66899e-07
-9.66031e-08
-6.54537e-07
9.81696e-08
-4.03447e-07
2.77715e-07
9.33696e-08
4.19485e-07
4.25837e-07
5.70468e-07
6.27502e-07
1.03164e-06
-1.73462e-07
1.33669e-06
-1.56344e-06
1.43871e-06
-2.31119e-06
1.46479e-06
-2.49852e-06
1.47521e-06
-2.52908e-06
1.4911e-06
-2.52793e-06
1.51374e-06
-2.5275e-06
1.54058e-06
-2.53694e-06
1.56915e-06
-2.555e-06
1.5984e-06
-2.57866e-06
1.62842e-06
-2.60588e-06
1.65962e-06
-2.6357e-06
1.69312e-06
-2.66758e-06
1.72705e-06
-2.70252e-06
1.76545e-06
-2.73762e-06
-2.77768e-06
1.80432e-06
-1.65753e-07
-1.50928e-07
-2.57791e-07
-4.28499e-07
-2.91095e-07
-5.92779e-07
-2.60336e-07
-7.01229e-07
-1.95698e-07
-7.24405e-07
-1.28501e-09
-6.12542e-07
3.02987e-07
-2.2252e-07
5.07043e-07
2.11777e-07
7.69176e-07
3.55943e-07
1.20786e-06
-6.15558e-07
1.44662e-06
-1.80568e-06
1.49765e-06
-2.36345e-06
1.494e-06
-2.49625e-06
1.48667e-06
-2.52283e-06
1.48828e-06
-2.53039e-06
1.49917e-06
-2.53908e-06
1.51669e-06
-2.55501e-06
1.5384e-06
-2.57713e-06
1.56291e-06
-2.60349e-06
1.58966e-06
-2.63285e-06
1.61851e-06
-2.66463e-06
1.64874e-06
-2.6987e-06
1.68226e-06
-2.73405e-06
1.71539e-06
-2.7737e-06
-2.81368e-06
1.75224e-06
-1.98924e-07
4.20975e-08
-3.28214e-07
-3.00577e-07
-3.86974e-07
-5.35226e-07
-3.7112e-07
-7.16019e-07
-2.78537e-07
-8.24531e-07
-8.55022e-08
-8.14306e-07
2.51473e-07
-5.70291e-07
5.00016e-07
-4.60482e-08
8.78796e-07
-2.94209e-08
1.3077e-06
-1.04779e-06
1.4966e-06
-1.99565e-06
1.51377e-06
-2.38211e-06
1.4953e-06
-2.47892e-06
1.47852e-06
-2.50698e-06
1.47119e-06
-2.52383e-06
1.47461e-06
-2.54316e-06
1.48634e-06
-2.56728e-06
1.50377e-06
-2.59499e-06
1.52509e-06
-2.62514e-06
1.54923e-06
-2.65724e-06
1.57553e-06