/*--------------------------------*- C++ -*----------------------------------*\
  =========                 |
  \\      /  F ield         | OpenFOAM: The Open Source CFD Toolbox
   \\    /   O peration     | Website:  https://openfoam.org
    \\  /    A nd           | Version:  13
     \\/     M anipulation  |
\*---------------------------------------------------------------------------*/
FoamFile
{
    format      ascii;
    class       surfaceScalarField;
    location    "11";
    object      phi;
}
// * * * * * * * * * * * * * * * * * * * * * * * * * * * * * * * * * * * * * //

dimensions      [0 3 -1 0 0 0 0];

internalField   nonuniform List<scalar> 
12590
(
-7.42276e-14
7.42293e-14
-2.83035e-14
-4.5922e-14
1.6948e-13
-1.97781e-13
4.88569e-13
-3.19087e-13
8.99304e-13
-4.10732e-13
1.36595e-12
-4.66648e-13
1.85086e-12
-4.84903e-13
2.33243e-12
-4.8157e-13
2.80413e-12
-4.71696e-13
3.29387e-12
-4.8974e-13
3.724e-12
-4.30132e-13
4.07095e-12
-3.46949e-13
4.31236e-12
-2.41403e-13
4.42879e-12
-1.16438e-13
4.40285e-12
2.59482e-14
4.22928e-12
1.73572e-13
3.91098e-12
3.18294e-13
3.41396e-12
4.97025e-13
2.81701e-12
5.96945e-13
2.19097e-12
6.26042e-13
1.58622e-12
6.04751e-13
1.06609e-12
5.20128e-13
6.61435e-13
4.04656e-13
2.87996e-13
3.73439e-13
2.87996e-13
1.13884e-13
-3.96521e-14
5.12091e-13
-4.44125e-13
1.17011e-12
-8.55796e-13
2.02654e-12
-1.17551e-12
3.01194e-12
-1.39613e-12
4.04498e-12
-1.49968e-12
5.0364e-12
-1.47633e-12
5.88077e-12
-1.32593e-12
6.49887e-12
-1.0898e-12
6.89755e-12
-8.88419e-13
7.09144e-12
-6.24018e-13
6.99343e-12
-2.48941e-13
6.60303e-12
1.49006e-13
5.9415e-12
5.45087e-13
4.9782e-12
9.89258e-13
3.79591e-12
1.35586e-12
2.52403e-12
1.59017e-12
1.35967e-12
1.66138e-12
3.5554e-13
1.60108e-12
-4.04894e-13
1.38648e-12
-8.13235e-13
1.01309e-12
-8.60065e-13
5.66958e-13
-6.19573e-13
1.64164e-13
-2.10372e-13
-3.57617e-14
7.7624e-14
1.81078e-13
-2.20726e-13
6.99455e-13
-9.62497e-13
1.488e-12
-1.64434e-12
2.4785e-12
-2.16601e-12
3.5845e-12
-2.50212e-12
4.67343e-12
-2.58861e-12
5.62858e-12
-2.43148e-12
6.35501e-12
-2.05236e-12
6.74178e-12
-1.47656e-12
6.805e-12
-9.51639e-13
6.5533e-12
-3.72315e-13
5.96655e-12
3.37814e-13
5.0123e-12
1.10326e-12
3.66981e-12
1.88758e-12
2.18915e-12
2.46991e-12
7.09518e-13
2.8355e-12
-6.46816e-13
2.94651e-12
-1.75894e-12
2.77351e-12
-2.45907e-12
2.3012e-12
-2.66246e-12
1.58987e-12
-2.35973e-12
7.1037e-13
-1.6578e-12
-1.34977e-13
-9.10387e-13
-5.83248e-13
-2.45873e-13
-7.00276e-13
-1.68249e-13
1.56317e-13
-3.77037e-13
6.09438e-13
-1.41561e-12
1.33218e-12
-2.36707e-12
2.28557e-12
-3.11939e-12
3.35952e-12
-3.57607e-12
4.41959e-12
-3.64867e-12
5.30712e-12
-3.319e-12
5.93297e-12
-2.6782e-12
6.22475e-12
-1.76834e-12
6.15173e-12
-8.78617e-13
5.75651e-12
2.29133e-14
4.9796e-12
1.11473e-12
3.77544e-12
2.30742e-12
2.43236e-12
3.23066e-12
1.02408e-12
3.8782e-12
-3.43184e-13
4.20276e-12
-1.55987e-12
4.1632e-12
-2.46081e-12
3.67445e-12
-2.90999e-12
2.75038e-12
-2.87079e-12
1.55067e-12
-2.28781e-12
1.27395e-13
-1.55924e-12
-8.63549e-13
-8.00299e-13
-1.34219e-12
-2.00978e-13
-1.2996e-12
-3.69226e-13
9.50025e-14
-4.72033e-13
4.11585e-13
-1.73219e-12
9.95427e-13
-2.95091e-12
1.84241e-12
-3.96637e-12
2.84508e-12
-4.57873e-12
3.857e-12
-4.66058e-12
4.73506e-12
-4.19705e-12
5.34021e-12
-3.28334e-12
5.65181e-12
-2.07993e-12
5.58848e-12
-8.15281e-13
5.24111e-12
3.70281e-13
4.45402e-12
1.90183e-12
3.51569e-12
3.24575e-12
2.4293e-12
4.31706e-12
1.26392e-12
5.04358e-12
1.12454e-13
5.35424e-12
-9.26578e-13
5.20223e-12
-1.7295e-12
4.47737e-12
-2.19261e-12
3.2135e-12
-2.18519e-12
1.54325e-12
-1.77024e-12
-2.87554e-13
-1.17849e-12
-1.4553e-12
-6.23904e-13
-1.89677e-12
-1.5069e-13
-1.77281e-12
-5.19916e-13
1.92538e-14
-4.91277e-13
1.64986e-13
-1.87791e-12
5.72667e-13
-3.35858e-12
1.303e-12
-4.69669e-12
2.22442e-12
-5.50014e-12
3.17722e-12
-5.61337e-12
4.03173e-12
-5.05155e-12
4.64758e-12
-3.89917e-12
4.9955e-12
-2.42784e-12
5.01028e-12
-8.3005e-13
4.77446e-12
6.06108e-13
4.2327e-12
2.4436e-12
3.5339e-12
3.94456e-12
2.7058e-12
5.14516e-12
1.79289e-12
5.9565e-12
8.5327e-13
6.29386e-12
-5.05002e-14
6.10601e-12
-7.95175e-13
5.22205e-12
-1.29374e-12
3.71206e-12
-1.45438e-12
1.70389e-12
-1.28452e-12
-4.5741e-13
-8.81773e-13
-1.85804e-12
-4.99805e-13
-2.27873e-12
-1.28992e-13
-2.14362e-12
-6.48908e-13
-6.77512e-14
-4.23513e-13
-9.75467e-14
-1.8481e-12
1.37443e-13
-3.59355e-12
6.94365e-13
-5.2536e-12
1.5199e-12
-6.32566e-12
2.39901e-12
-6.49247e-12
3.19926e-12
-5.85179e-12
3.82051e-12
-4.52041e-12
4.20004e-12
-2.80737e-12
4.29494e-12
-9.24933e-13
4.15673e-12
7.44329e-13
3.85767e-12
2.74266e-12
3.4149e-12
4.38734e-12
2.84801e-12
5.71206e-12
2.18334e-12
6.62117e-12
1.44364e-12
7.03357e-12
6.66149e-13
6.88351e-12
-1.03869e-14
5.89859e-12
-5.50248e-13
4.25193e-12
-8.24488e-13
1.97813e-12
-8.0466e-13
-4.77234e-13
-5.79518e-13
-2.08318e-12
-3.32186e-13
-2.52606e-12
-7.28421e-14
-2.40296e-12
-7.21749e-13
-1.75184e-13
-2.48314e-13
-4.14364e-13
-1.6089e-12
-3.69532e-13
-3.63836e-12
6.835e-14
-5.69146e-12
7.28184e-13
-6.98547e-12
1.49999e-12
-7.26426e-12
2.21182e-12
-6.56359e-12
2.81609e-12
-5.12467e-12
3.23835e-12
-3.22961e-12
3.4436e-12
-1.13018e-12
3.46179e-12
7.26158e-13
3.36816e-12
2.83629e-12
3.16167e-12
4.59384e-12
2.85169e-12
6.02205e-12
2.43909e-12
7.03379e-12
1.92035e-12
7.55232e-12
1.30455e-12
7.49931e-12
6.84069e-13
6.51908e-12
1.55006e-13
4.781e-12
-2.19777e-13
2.35292e-12
-3.74089e-13
-3.22916e-13
-3.29762e-13
-2.1275e-12
-3.0707e-14
-2.82511e-12
1.71102e-14
-2.45077e-12
-7.04638e-13
-2.88164e-13
3.98675e-14
-7.22485e-13
-1.17456e-12
-8.51135e-13
-3.50969e-12
-5.7391e-13
-5.96867e-12
-2.40755e-14
-7.53529e-12
5.8179e-13
-7.87011e-12
1.21543e-12
-7.19722e-12
1.77149e-12
-5.68071e-12
2.23484e-12
-3.69295e-12
2.592e-12
-1.48732e-12
2.76558e-12
5.52592e-13
2.9331e-12
2.66879e-12
2.97349e-12
4.55345e-12
2.92783e-12
6.06773e-12
2.78182e-12
7.17981e-12
2.50873e-12
7.82543e-12
2.09355e-12
7.91449e-12
1.53672e-12
7.07592e-12
9.70131e-13
5.3476e-12
5.05116e-13
2.81795e-12
2.05787e-13
-2.35811e-14
3.3773e-14
-1.95548e-12
1.8832e-13
-2.97965e-12
1.04894e-13
-2.36734e-12
-5.99742e-13
-3.98522e-13
4.3841e-13
-1.01359e-12
-5.59463e-13
-1.29486e-12
-3.2284e-12
-1.14776e-12
-6.11574e-12
-7.23327e-13
-7.95971e-12
-1.87276e-13
-8.40614e-12
3.47373e-13
-7.73185e-12
8.93046e-13
-6.22636e-12
1.43613e-12
-4.23602e-12
1.98514e-12
-2.0363e-12
2.3869e-12
1.50841e-13
2.79531e-12
2.2604e-12
3.11833e-12
4.23044e-12
3.37631e-12
5.80976e-12
3.51215e-12
7.04398e-12
3.50975e-12
7.82784e-12
3.31369e-12
8.11056e-12
2.82254e-12
7.56709e-12
2.19212e-12
5.97803e-12
1.51035e-12
3.49973e-12
9.44153e-13
5.42626e-13
5.32123e-13
-1.54344e-12
2.6954e-13
-2.71706e-12
2.86346e-13
-2.38414e-12
-3.13394e-13
-5.03236e-13
9.41669e-13
-1.26683e-12
2.04161e-13
-1.65864e-12
-2.83657e-12
-1.60642e-12
-6.16793e-12
-1.26782e-12
-8.29828e-12
-7.74608e-13
-8.89933e-12
-1.84043e-13
-8.32239e-12
4.57247e-13
-6.86763e-12
1.19132e-12
-4.97008e-12
1.9926e-12
-2.83757e-12
2.76005e-12
-6.16589e-13
3.56322e-12
1.45724e-12
4.14155e-12
3.65212e-12
4.62975e-12
5.32158e-12
5.09473e-12
6.579e-12
5.41769e-12
7.50489e-12
5.468e-12
8.06026e-12
5.0154e-12
8.0197e-12
4.25325e-12
6.74019e-12
3.21026e-12
4.54273e-12
2.18818e-12
1.56472e-12
1.28733e-12
-6.42572e-13
5.99074e-13
-2.0288e-12
3.21364e-13
-2.10641e-12
7.97378e-15
-5.88082e-13
1.52978e-12
-1.45915e-12
1.07526e-12
-1.9183e-12
-2.37739e-12
-1.89906e-12
-6.18715e-12
-1.55531e-12
-8.642e-12
-1.00733e-12
-9.44729e-12
-3.00847e-13
-9.02886e-12
6.0366e-13
-7.77212e-12
1.64695e-12
-6.01335e-12
2.82259e-12
-4.0132e-12
4.24988e-12
-2.04387e-12
5.57405e-12
1.33093e-13
7.01888e-12
2.2073e-12
8.08155e-12
4.25892e-12
8.70726e-12
5.9533e-12
8.97624e-12
7.23593e-12
9.1046e-12
7.93191e-12
8.80991e-12
8.3144e-12
7.73363e-12
7.81649e-12
6.15473e-12
6.12165e-12
4.14238e-12
3.57708e-12
2.51683e-12
9.82993e-13
1.19118e-12
-7.03128e-13
2.99888e-13
-1.21511e-12
3.07867e-13
-6.35556e-13
2.16535e-12
-1.53113e-12
1.97086e-12
-1.95981e-12
-1.94869e-12
-1.83922e-12
-6.30772e-12
-1.36505e-12
-9.11615e-12
-6.29746e-13
-1.01826e-11
4.03579e-13
-1.00622e-11
1.76283e-12
-9.13136e-12
3.32233e-12
-7.57284e-12
5.10784e-12
-5.79869e-12
6.92284e-12
-3.85886e-12
9.05752e-12
-2.00158e-12
1.11527e-11
1.12165e-13
1.31522e-11
2.25936e-12
1.46858e-11
4.41971e-12
1.56549e-11
6.26686e-12
1.56855e-11
7.90137e-12
1.50121e-11
8.98774e-12
1.34168e-11
9.41188e-12
1.08893e-11
8.64909e-12
7.68591e-12
6.78053e-12
4.51197e-12
4.15695e-12
2.15227e-12
1.6566e-12
5.95057e-13
3.42122e-13
9.02931e-13
-6.34163e-13
2.79954e-12
-1.43564e-12
2.77235e-12
-1.68741e-12
-1.69691e-12
-1.33363e-12
-6.66148e-12
-5.49207e-13
-9.90056e-12
6.45323e-13
-1.13771e-11
2.19415e-12
-1.1611e-11
4.09478e-12
-1.1032e-11
6.47616e-12
-9.95422e-12
9.15054e-12
-8.47307e-12
1.20256e-11
-6.73397e-12
1.47378e-11
-4.71376e-12
1.76649e-11
-2.81486e-12
2.05247e-11
-6.00446e-13
2.29106e-11
2.03381e-12
2.43542e-11
4.82323e-12
2.48602e-11
7.39541e-12
2.43076e-11
9.54031e-12
2.2247e-11
1.14725e-11
1.84199e-11
1.24762e-11
1.35383e-11
1.16622e-11
8.26342e-12
9.43186e-12
3.61787e-12
6.30217e-12
9.23436e-13
3.03658e-12
1.82638e-12
-5.70217e-13
3.36976e-12
-1.15255e-12
3.35469e-12
-1.0423e-12
-1.80715e-12
-2.41686e-13
-7.46209e-12
1.12141e-12
-1.12637e-11
2.91328e-12
-1.3169e-11
5.23654e-12
-1.39342e-11
8.15327e-12
-1.39487e-11
1.15912e-11
-1.33922e-11
1.54677e-11
-1.23496e-11
1.95167e-11
-1.0783e-11
2.37186e-11
-8.91561e-12
2.74714e-11
-6.56765e-12
3.10812e-11
-4.21024e-12
3.43645e-11
-1.24954e-12
3.67261e-11
2.46164e-12
3.75318e-11
6.58973e-12
3.64289e-11
1.06432e-11
3.40403e-11
1.38611e-11
2.93726e-11
1.71438e-11
2.22444e-11
1.87904e-11
1.42325e-11
1.74438e-11
6.94995e-12
1.35847e-11
1.55089e-12
8.43568e-12
3.37728e-12
-4.28837e-13
3.79859e-12
-6.25513e-13
3.55136e-12
2.88244e-14
-2.46151e-12
1.53268e-12
-8.96596e-12
3.72414e-12
-1.34551e-11
6.61874e-12
-1.60636e-11
1.0124e-11
-1.74395e-11
1.42491e-11
-1.80738e-11
1.89993e-11
-1.81424e-11
2.43244e-11
-1.76747e-11
3.00737e-11
-1.65322e-11
3.58375e-11
-1.46795e-11
4.1355e-11
-1.20851e-11
4.60108e-11
-8.86609e-12
5.00836e-11
-5.3223e-12
5.32826e-11
-7.37338e-13
5.46262e-11
5.24615e-12
5.34158e-11
1.18536e-11
4.96456e-11
1.76314e-11
4.37854e-11
2.3004e-11
3.45088e-11
2.80671e-11
2.31719e-11
2.87807e-11
1.17409e-11
2.50158e-11
3.38832e-12
1.67883e-11
6.76561e-12
-2.08319e-13
4.00689e-12
1.56195e-13
3.18681e-12
1.58917e-12
-3.89452e-12
4.02165e-12
-1.13985e-11
7.38365e-12
-1.68171e-11
1.16239e-11
-2.03038e-11
1.67317e-11
-2.25473e-11
2.262e-11
-2.39621e-11
2.9181e-11
-2.47034e-11
3.62859e-11
-2.47795e-11
4.38464e-11
-2.40928e-11
5.16614e-11
-2.24945e-11
5.93792e-11
-1.98029e-11
6.62512e-11
-1.5738e-11
7.15233e-11
-1.05945e-11
7.55839e-11
-4.79791e-12
7.77761e-11
3.05399e-12
7.66038e-11
1.30259e-11
7.16474e-11
2.25878e-11
6.25785e-11
3.2073e-11
5.10958e-11
3.95498e-11
3.48561e-11
4.50204e-11
1.89723e-11
4.08997e-11
5.68594e-12
3.00746e-11
1.24516e-11
1.09699e-13
3.89714e-12
1.15848e-12
2.13797e-12
3.55981e-12
-6.29591e-12
7.20173e-12
-1.50404e-11
1.19679e-11
-2.15834e-11
1.78721e-11
-2.6208e-11
2.48949e-11
-2.95701e-11
3.29487e-11
-3.20159e-11
4.18796e-11
-3.36344e-11
5.1457e-11
-3.43569e-11
6.13986e-11
-3.40343e-11
7.14437e-11
-3.25396e-11
8.14145e-11
-2.97738e-11
9.09253e-11
-2.52488e-11
9.90101e-11
-1.86793e-11
1.0432e-10
-1.01079e-11
1.07727e-10
-3.52379e-13
1.0706e-10
1.3692e-11
1.0188e-10
2.77679e-11
9.07518e-11
4.32015e-11
7.32101e-11
5.70915e-11
5.31077e-11
6.51228e-11
2.97382e-11
6.42692e-11
9.92428e-12
4.98887e-11
2.23759e-11
4.55748e-13
3.44131e-12
2.3602e-12
2.33429e-13
5.93286e-12
-9.86864e-12
1.10069e-11
-2.01146e-11
1.75267e-11
-2.81032e-11
2.5481e-11
-3.41623e-11
3.48202e-11
-3.89093e-11
4.54225e-11
-4.26182e-11
5.70936e-11
-4.53054e-11
6.96022e-11
-4.68655e-11
8.26739e-11
-4.7106e-11
9.59306e-11
-4.57963e-11
1.08827e-10
-4.267e-11
1.21007e-10
-3.74288e-11
1.32134e-10
-2.98062e-11
1.41088e-10
-1.90617e-11
1.45476e-10
-4.74098e-12
1.4577e-10
1.33979e-11
1.40085e-10
3.34535e-11
1.27073e-10
5.62132e-11
1.05628e-10
7.85363e-11
7.63154e-11
9.44357e-11
4.54561e-11
9.51286e-11
1.92877e-11
7.60572e-11
4.16635e-11
8.76057e-13
2.56516e-12
3.70712e-12
-2.59774e-12
8.58453e-12
-1.47461e-11
1.53384e-11
-2.68685e-11
2.38938e-11
-3.66587e-11
3.42066e-11
-4.44751e-11
4.61828e-11
-5.08854e-11
5.96647e-11
-5.61002e-11
7.44201e-11
-6.00608e-11
9.01314e-11
-6.25768e-11
1.06419e-10
-6.33935e-11
1.2286e-10
-6.22372e-11
1.38974e-10
-5.8784e-11
1.54181e-10
-5.26363e-11
1.67715e-10
-4.33401e-11
1.79036e-10
-3.03828e-11
1.86655e-10
-1.236e-11
1.89319e-10
1.07347e-11
1.84157e-10
3.86155e-11
1.70813e-10
6.95571e-11
1.49074e-10
1.00275e-10
1.20288e-10
1.23222e-10
8.92624e-11
1.26154e-10
5.45169e-11
1.10803e-10
9.61805e-11
1.14186e-12
1.42321e-12
4.13797e-12
-5.59396e-12
8.7388e-12
-1.9347e-11
1.49703e-11
-3.31e-11
2.29245e-11
-4.46129e-11
3.26258e-11
-5.41764e-11
4.40421e-11
-6.23017e-11
5.71168e-11
-6.91748e-11
7.17731e-11
-7.4717e-11
8.7909e-11
-7.87126e-11
1.05409e-10
-8.08939e-11
1.24137e-10
-8.09643e-11
1.43931e-10
-7.85782e-11
1.64614e-10
-7.33197e-11
1.85948e-10
-6.46742e-11
2.07522e-10
-5.19564e-11
2.29605e-10
-3.44424e-11
2.51434e-10
-1.10947e-11
2.71372e-10
1.86772e-11
2.87671e-10
5.32587e-11
2.95802e-10
9.21443e-11
2.90271e-10
1.28753e-10
2.63141e-10
1.53284e-10
2.11509e-10
1.62435e-10
1.74372e-10
1.33317e-10
1.39102e-12
3.20854e-14
4.95354e-12
-9.15658e-12
1.03951e-11
-2.47887e-11
1.77072e-11
-4.04121e-11
2.69215e-11
-5.38272e-11
3.80224e-11
-6.52772e-11
5.09785e-11
-7.52578e-11
6.57276e-11
-8.39239e-11
8.2204e-11
-9.11934e-11
1.00343e-10
-9.68518e-11
1.20076e-10
-1.00626e-10
1.41331e-10
-1.0222e-10
1.64025e-10
-1.01272e-10
1.88081e-10
-9.73758e-11
2.13439e-10
-9.00315e-11
2.40067e-10
-7.85845e-11
2.67951e-10
-6.23269e-11
2.97226e-10
-4.03697e-11
3.27777e-10
-1.18734e-11
3.58433e-10
2.26023e-11
3.87673e-10
6.29042e-11
4.10899e-10
1.05527e-10
4.20224e-10
1.4396e-10
4.07437e-10
1.75222e-10
2.19903e-10
3.61906e-10
1.59618e-12
-1.5642e-12
5.67524e-12
-1.32358e-11
1.19006e-11
-3.10141e-11
2.02152e-11
-4.87267e-11
3.06049e-11
-6.4217e-11
4.30384e-11
-7.77107e-11
5.74613e-11
-8.96806e-11
7.38258e-11
-1.00288e-10
9.20847e-11
-1.09452e-10
1.12199e-10
-1.16966e-10
1.34117e-10
-1.22544e-10
1.57848e-10
-1.25951e-10
1.83361e-10
-1.26785e-10
2.10652e-10
-1.24666e-10
2.39823e-10
-1.19202e-10
2.7097e-10
-1.09731e-10
3.0426e-10
-9.56166e-11
3.39989e-10
-7.60989e-11
3.78618e-10
-5.0502e-11
4.19676e-10
-1.8456e-11
4.62584e-10
1.99966e-11
5.0412e-10
6.39907e-11
5.37292e-10
1.10788e-10
5.51294e-10
1.61221e-10
2.29003e-10
5.42194e-10
1.7657e-12
-3.33e-12
6.29612e-12
-1.77663e-11
1.32117e-11
-3.79298e-11
2.24096e-11
-5.79246e-11
3.38445e-11
-7.56519e-11
4.74609e-11
-9.1327e-11
6.32015e-11
-1.05421e-10
8.10203e-11
-1.18107e-10
1.00882e-10
-1.29314e-10
1.22761e-10
-1.38845e-10
1.46667e-10
-1.46449e-10
1.72572e-10
-1.51856e-10
2.00525e-10
-1.54738e-10
2.30597e-10
-1.54738e-10
2.62846e-10
-1.51451e-10
2.97468e-10
-1.44354e-10
3.34676e-10
-1.32824e-10
3.74763e-10
-1.16186e-10
4.1797e-10
-9.37084e-11
4.64167e-10
-6.46532e-11
5.12943e-10
-2.87796e-11
5.61717e-10
1.52171e-11
6.0521e-10
6.7295e-11
6.35881e-10
1.30549e-10
2.15303e-10
6.49582e-10
1.90631e-12
-5.23642e-12
6.81994e-12
-2.268e-11
1.43202e-11
-4.54301e-11
2.42681e-11
-6.78726e-11
3.65924e-11
-8.79762e-11
5.1222e-11
-1.05957e-10
6.80929e-11
-1.22292e-10
8.71568e-11
-1.37171e-10
1.08383e-10
-1.5054e-10
1.31758e-10
-1.6222e-10
1.57286e-10
-1.71977e-10
1.84974e-10
-1.79544e-10
2.14865e-10
-1.84629e-10
2.47025e-10
-1.86898e-10
2.81536e-10
-1.85962e-10
3.18528e-10
-1.81346e-10
3.58172e-10
-1.72468e-10
4.00641e-10
-1.58656e-10
4.46001e-10
-1.39068e-10
4.9411e-10
-1.12762e-10
5.43925e-10
-7.85949e-11
5.94434e-10
-3.52919e-11
6.41576e-10
2.01531e-11
6.81304e-10
9.08214e-11
1.8485e-10
7.11757e-10
2.01837e-12
-7.2549e-12
7.24278e-12
-2.79045e-11
1.52172e-11
-5.34046e-11
2.57744e-11
-7.84298e-11
3.88239e-11
-1.01026e-10
5.42819e-11
-1.21415e-10
7.20757e-11
-1.40086e-10
9.21521e-11
-1.57247e-10
1.14478e-10
-1.72865e-10
1.39036e-10
-1.86779e-10
1.65827e-10
-1.98767e-10
1.94862e-10
-2.08579e-10
2.2617e-10
-2.15936e-10
2.59793e-10
-2.20521e-10
2.95789e-10
-2.21958e-10
3.34231e-10
-2.19787e-10
3.75194e-10
-2.13431e-10
4.187e-10
-2.02162e-10
4.64789e-10
-1.85158e-10
5.13106e-10
-1.61078e-10
5.63095e-10
-1.28584e-10
6.13433e-10
-8.56303e-11
6.63014e-10
-2.94277e-11
7.09696e-10
4.41396e-11
1.40168e-10
7.54378e-10
2.10196e-12
-9.35698e-12
7.5636e-12
-3.33663e-11
1.59012e-11
-6.17424e-11
2.69266e-11
-8.94553e-11
4.05352e-11
-1.14634e-10
5.66329e-11
-1.37512e-10
7.51382e-11
-1.58591e-10
9.59895e-11
-1.78098e-10
1.19146e-10
-1.96021e-10
1.44583e-10
-2.12216e-10
1.7229e-10
-2.26475e-10
2.02269e-10
-2.38558e-10
2.34528e-10
-2.48196e-10
2.69086e-10
-2.55078e-10
3.05963e-10
-2.58835e-10
3.45179e-10
-2.59003e-10
3.86743e-10
-2.54995e-10
4.30644e-10
-2.46062e-10
4.76724e-10
-2.31238e-10
5.24958e-10
-2.09312e-10
5.74862e-10
-1.78488e-10
6.26052e-10
-1.3682e-10
6.78155e-10
-8.15303e-11
7.31564e-10
-9.27013e-12
8.34389e-11
7.88293e-10
2.15858e-12
-1.15157e-11
7.78652e-12
-3.89944e-11
1.63806e-11
-7.03365e-11
2.77382e-11
-1.00813e-10
4.17456e-11
-1.28642e-10
5.83007e-11
-1.54067e-10
7.73135e-11
-1.77604e-10
9.87126e-11
-1.99497e-10
1.22446e-10
-2.19755e-10
1.4848e-10
-2.38249e-10
1.7679e-10
-2.54785e-10
2.07363e-10
-2.69131e-10
2.4019e-10
-2.81023e-10
2.75267e-10
-2.90155e-10
3.12586e-10
-2.96154e-10
3.52138e-10
-2.98555e-10
3.93906e-10
-2.96763e-10
4.37859e-10
-2.90015e-10
4.83951e-10
-2.7733e-10
5.32099e-10
-2.5746e-10
5.82404e-10
-2.28792e-10
6.34938e-10
-1.89354e-10
6.90258e-10
-1.36849e-10
7.4975e-10
-6.87628e-11
1.70845e-11
8.16105e-10
2.19073e-12
-1.37065e-11
7.91941e-12
-4.47232e-11
1.66712e-11
-7.90884e-11
2.82352e-11
-1.12377e-10
4.24929e-11
-1.42899e-10
5.93368e-11
-1.70911e-10
7.86688e-11
-1.96936e-10
1.00408e-10
-2.21236e-10
1.24491e-10
-2.43838e-10
1.50872e-10
-2.6463e-10
1.79516e-10
-2.83428e-10
2.10396e-10
-3.0001e-10
2.43489e-10
-3.14116e-10
2.78775e-10
-3.25441e-10
3.16237e-10
-3.33616e-10
3.55858e-10
-3.38177e-10
3.97629e-10
-3.38534e-10
4.41554e-10
-3.3394e-10
4.87674e-10
-3.23449e-10
5.36098e-10
-3.05884e-10
5.87122e-10
-2.79817e-10
6.41333e-10
-2.43565e-10
6.9979e-10
-1.95307e-10
7.64326e-10
-1.33299e-10
-5.63458e-11
8.37756e-10
2.20079e-12
-1.59075e-11
7.97232e-12
-5.04948e-11
1.67939e-11
-8.79101e-11
2.84521e-11
-1.24035e-10
4.28275e-11
-1.57275e-10
5.98094e-11
-1.87893e-10
7.9293e-11
-2.16419e-10
1.01189e-10
-2.43132e-10
1.25424e-10
-2.68074e-10
1.51943e-10
-2.91149e-10
1.807e-10
-3.12185e-10
2.11658e-10
-3.30968e-10
2.44788e-10
-3.47245e-10
2.80064e-10
-3.60718e-10
3.17472e-10
-3.71023e-10
3.57006e-10
-3.77711e-10
3.98686e-10
-3.80215e-10
4.42576e-10
-3.7783e-10
4.88812e-10
-3.69685e-10
5.37663e-10
-3.54735e-10
5.89611e-10
-3.31765e-10
6.45487e-10
-2.99441e-10
7.06602e-10
-2.56422e-10
7.74894e-10
-2.01591e-10
-1.34436e-10
8.52984e-10
2.19271e-12
-1.81003e-11
7.95677e-12
-5.6259e-11
1.67723e-11
-9.67258e-11
2.8428e-11
-1.35691e-10
4.28065e-11
-1.71653e-10
5.97961e-11
-2.04883e-10
7.92876e-11
-2.3591e-10
1.01185e-10
-2.65029e-10
1.25408e-10
-2.92297e-10
1.51892e-10
-3.17633e-10
1.80586e-10
-3.40879e-10
2.11448e-10
-3.6183e-10
2.44445e-10
-3.80243e-10
2.79558e-10
-3.9583e-10
3.1678e-10
-4.08246e-10
3.56133e-10
-4.17063e-10
3.97674e-10
-4.21756e-10
4.41528e-10
-4.21684e-10
4.87921e-10
-4.16078e-10
5.37233e-10
-4.04047e-10
5.90074e-10
-3.84606e-10
6.47378e-10
-3.56745e-10
7.10501e-10
-3.19544e-10
7.8129e-10
-2.7238e-10
-2.15161e-10
8.62015e-10
2.16946e-12
-2.02699e-11
7.88457e-12
-6.19743e-11
1.66311e-11
-1.05472e-10
2.82034e-11
-1.47263e-10
4.24891e-11
-1.85939e-10
5.93776e-11
-2.21771e-10
7.87575e-11
-2.5529e-10
1.00528e-10
-2.868e-10
1.24605e-10
-3.16374e-10
1.50919e-10
-3.43946e-10
1.79414e-10
-3.69373e-10
2.10047e-10
-3.92463e-10
2.42789e-10
-4.12985e-10
2.7763e-10
-4.3067e-10
3.14579e-10
-4.45195e-10
3.53684e-10
-4.56168e-10
3.95045e-10
-4.63117e-10
4.38839e-10
-4.65478e-10
4.85359e-10
-4.62598e-10
5.35058e-10
-4.53746e-10
5.88608e-10
-4.38156e-10
6.46961e-10
-4.15098e-10
7.11404e-10
-3.83987e-10
7.83572e-10
-3.44549e-10
-2.97025e-10
8.65436e-10
2.13434e-12
-2.24044e-11
7.76739e-12
-6.76075e-11
1.63943e-11
-1.14099e-10
2.78181e-11
-1.58687e-10
4.19332e-11
-2.00054e-10
5.86323e-11
-2.3847e-10
7.78043e-11
-2.74462e-10
9.93469e-11
-3.08342e-10
1.23172e-10
-3.40199e-10
1.49209e-10
-3.69983e-10
1.77401e-10
-3.97565e-10
2.07707e-10
-4.22769e-10
2.40105e-10
-4.45383e-10
2.74593e-10
-4.65159e-10
3.11203e-10
-4.81804e-10
3.50006e-10
-4.94971e-10
3.91136e-10
-5.04247e-10
4.34812e-10
-5.09154e-10
4.8137e-10
-5.09155e-10
5.31299e-10
-5.03675e-10
5.85284e-10
-4.92141e-10
6.44241e-10
-4.74055e-10
7.0934e-10
-4.49087e-10
7.81998e-10
-4.17206e-10
-3.78833e-10
8.63806e-10
2.09029e-12
-2.44949e-11
7.61585e-12
-7.31332e-11
1.6084e-11
-1.22568e-10
2.73083e-11
-1.69912e-10
4.11918e-11
-2.13938e-10
5.76323e-11
-2.54911e-10
7.65209e-11
-2.93351e-10
9.77553e-11
-3.29576e-10
1.21248e-10
-3.63691e-10
1.46926e-10
-3.95661e-10
1.74736e-10
-4.25374e-10
2.04641e-10
-4.52673e-10
2.36625e-10
-4.77367e-10
2.707e-10
-4.99234e-10
3.06913e-10
-5.18017e-10
3.45357e-10
-5.33415e-10
3.86191e-10
-5.45081e-10
4.2966e-10
-5.52623e-10
4.76121e-10
-5.55616e-10
5.2607e-10
-5.53624e-10
5.8017e-10
-5.46242e-10
6.39272e-10
-5.33157e-10
7.04413e-10
-5.14227e-10
7.76791e-10
-4.89584e-10
-4.59734e-10
8.57692e-10
2.0397e-12
-2.65347e-11
7.43909e-12
-7.85328e-11
1.57194e-11
-1.30848e-10
2.67061e-11
-1.80898e-10
4.03117e-11
-2.27543e-10
5.64406e-11
-2.71039e-10
7.49877e-11
-3.11898e-10
9.58529e-11
-3.50441e-10
1.18949e-10
-3.86787e-10
1.44207e-10
-4.20919e-10
1.71574e-10
-4.52742e-10
2.0102e-10
-4.82118e-10
2.32535e-10
-5.08882e-10
2.66143e-10
-5.32842e-10
3.01902e-10
-5.53776e-10
3.39923e-10
-5.71435e-10
3.80379e-10
-5.85537e-10
4.23527e-10
-5.95771e-10
4.69725e-10
-6.01814e-10
5.19455e-10
-6.03354e-10
5.73339e-10
-6.00125e-10
6.3214e-10
-5.91958e-10
6.96762e-10
-5.78849e-10
7.68209e-10
-5.61032e-10
-5.39048e-10
8.47524e-10
1.98461e-12
-2.85195e-11
7.24458e-12
-8.37929e-11
1.53165e-11
-1.3892e-10
2.60379e-11
-1.9162e-10
3.93315e-11
-2.40837e-10
5.51095e-11
-2.86817e-10
7.32717e-11
-3.3006e-10
9.37213e-11
-3.70891e-10
1.16374e-10
-4.0944e-10
1.41163e-10
-4.45707e-10
1.68039e-10
-4.79618e-10
1.96976e-10
-5.11055e-10
2.27973e-10
-5.3988e-10
2.61061e-10
-5.65929e-10
2.96307e-10
-5.89022e-10
3.3383e-10
-6.08959e-10
3.7381e-10
-6.25517e-10
4.16503e-10
-6.38464e-10
4.62255e-10
-6.47567e-10
5.11518e-10
-6.52617e-10
5.64855e-10
-6.53462e-10
6.22942e-10
-6.50044e-10
6.86549e-10
-6.42457e-10
7.56514e-10
-6.30996e-10
-6.1621e-10
8.33676e-10
1.92654e-12
-3.04462e-11
7.0387e-12
-8.89053e-11
1.48879e-11
-1.4677e-10
2.53249e-11
-2.02057e-10
3.82825e-11
-2.53795e-10
5.3681e-11
-3.02216e-10
7.14259e-11
-3.47805e-10
9.14245e-11
-3.90889e-10
1.13596e-10
-4.31611e-10
1.37876e-10
-4.69987e-10
1.6422e-10
-5.05961e-10
1.92606e-10
-5.39441e-10
2.23038e-10
-5.70311e-10
2.5555e-10
-5.98441e-10
2.90217e-10
-6.23689e-10
3.27159e-10
-6.459e-10
3.66553e-10
-6.64911e-10
4.08645e-10
-6.80555e-10
4.53759e-10
-6.92681e-10
5.02305e-10
-7.01163e-10
5.54783e-10
-7.05939e-10
6.11776e-10
-7.07037e-10
6.73936e-10
-7.04617e-10
7.41949e-10
-6.99009e-10
-6.90751e-10
8.1649e-10
1.86672e-12
-3.23131e-11
6.82505e-12
-9.38638e-11
1.44431e-11
-1.54388e-10
2.45832e-11
-2.12197e-10
3.71883e-11
-2.664e-10
5.21868e-11
-3.17214e-10
6.94903e-11
-3.65108e-10
8.90105e-11
-4.10409e-10
1.1067e-10
-4.53271e-10
1.34409e-10
-4.93725e-10
1.60184e-10
-5.31737e-10
1.87977e-10
-5.67235e-10
2.17796e-10
-6.00129e-10
2.49676e-10
-6.30321e-10
2.83691e-10
-6.57705e-10
3.1996e-10
-6.82168e-10
3.58649e-10
-7.036e-10
3.99987e-10
-7.21894e-10
4.44268e-10
-7.36961e-10
4.91855e-10
-7.4875e-10
5.43181e-10
-7.57265e-10
5.98741e-10
-7.62597e-10
6.59075e-10
-7.64951e-10
7.2474e-10
-7.64674e-10
-7.6228e-10
7.96268e-10
1.80586e-12
-3.41192e-11
6.60725e-12
-9.86653e-11
1.3989e-11
-1.6177e-10
2.38244e-11
-2.22033e-10
3.60661e-11
-2.78642e-10
5.06499e-11
-3.31798e-10
6.74936e-11
-3.81952e-10
8.65136e-11
-4.29429e-10
1.07636e-10
-4.74393e-10
1.30803e-10
-5.16892e-10
1.55975e-10
-5.56909e-10
1.83135e-10
-5.94394e-10
2.1229e-10
-6.29284e-10
2.43476e-10
-6.61507e-10
2.76763e-10
-6.90992e-10
3.12261e-10
-7.17666e-10
3.50123e-10
-7.41462e-10
3.90553e-10
-7.62324e-10
4.33811e-10
-7.80219e-10
4.80209e-10
-7.95148e-10
5.30116e-10
-8.07172e-10
5.83941e-10
-8.16422e-10
6.42122e-10
-8.23133e-10
7.05102e-10
-8.27654e-10
-8.30472e-10
7.73294e-10
1.74451e-12
-3.58639e-11
6.38763e-12
-1.03309e-10
1.35303e-11
-1.68913e-10
2.30566e-11
-2.31559e-10
3.49274e-11
-2.90513e-10
4.90858e-11
-3.45956e-10
6.54554e-11
-3.98321e-10
8.39568e-11
-4.47931e-10
1.04519e-10
-4.94955e-10
1.27087e-10
-5.39459e-10
1.51622e-10
-5.81443e-10
1.78106e-10
-6.20879e-10
2.06547e-10
-6.57724e-10
2.36976e-10
-6.91936e-10
2.69455e-10
-7.23472e-10
3.04083e-10
-7.52294e-10
3.40995e-10
-7.78373e-10
3.80367e-10
-8.01696e-10
4.22421e-10
-8.22272e-10
4.6742e-10
-8.40147e-10
5.15666e-10
-8.55418e-10
5.67492e-10
-8.68248e-10
6.23242e-10
-8.78883e-10
6.83259e-10
-8.8767e-10
-8.95062e-10
7.47849e-10
1.68292e-12
-3.7547e-11
6.16716e-12
-1.07793e-10
1.30698e-11
-1.75815e-10
2.22845e-11
-2.40774e-10
3.37797e-11
-3.02008e-10
4.75047e-11
-3.59681e-10
6.33882e-11
-4.14205e-10
8.13548e-11
-4.65897e-10
1.01336e-10
-5.14937e-10
1.23278e-10
-5.61401e-10
1.47142e-10
-6.05307e-10
1.7291e-10
-6.46647e-10
2.00585e-10
-6.85398e-10
2.30192e-10
-7.21543e-10
2.61784e-10
-7.55064e-10
2.95444e-10
-7.85954e-10
3.31286e-10
-8.14215e-10
3.69458e-10
-8.39868e-10
4.10142e-10
-8.62956e-10
4.53552e-10
-8.83557e-10
4.99929e-10
-9.01794e-10
5.4953e-10
-9.17849e-10
6.0262e-10
-9.31973e-10
6.59447e-10
-9.44498e-10
-9.55842e-10
7.20228e-10
1.62132e-12
-3.91685e-11
5.94658e-12
-1.12119e-10
1.26091e-11
-1.82478e-10
2.15111e-11
-2.49676e-10
3.26272e-11
-3.13124e-10
4.59122e-11
-3.72966e-10
6.12994e-11
-4.29592e-10
7.87164e-11
-4.83314e-10
9.80971e-11
-5.34317e-10
1.19387e-10
-5.82691e-10
1.42548e-10
-6.28468e-10
1.67559e-10
-6.71657e-10
1.94416e-10
-7.12255e-10
2.23137e-10
-7.50264e-10
2.53765e-10
-7.85691e-10
2.86364e-10
-8.18553e-10
3.21025e-10
-8.48877e-10
3.57868e-10
-8.76711e-10
3.97034e-10
-9.02123e-10
4.3869e-10
-9.25214e-10
4.8302e-10
-9.46124e-10
5.30213e-10
-9.65043e-10
5.80459e-10
-9.82219e-10
6.33926e-10
-9.97965e-10
-1.01266e-09
6.90746e-10
1.55966e-12
-4.07284e-11
5.72615e-12
-1.16285e-10
1.21488e-11
-1.88901e-10
2.07376e-11
-2.58265e-10
3.1472e-11
-3.23858e-10
4.43116e-11
-3.85806e-10
5.91931e-11
-4.44473e-10
7.60471e-11
-5.00168e-10
9.48083e-11
-5.53078e-10
1.15422e-10
-6.03305e-10
1.37849e-10
-6.50894e-10
1.62062e-10
-6.95869e-10
1.88052e-10
-7.38245e-10
2.15828e-10
-7.78041e-10
2.45419e-10
-8.15282e-10
2.76871e-10
-8.50004e-10
3.10253e-10
-8.82258e-10
3.45651e-10
-9.12109e-10
3.83173e-10
-9.39644e-10
4.22939e-10
-9.64979e-10
4.65078e-10
-9.88263e-10
5.0972e-10
-1.00969e-09
5.56987e-10
-1.02949e-09
6.06975e-10
-1.04795e-09
-1.06543e-09
6.59744e-10
1.498e-12
-4.22266e-11
5.50592e-12
-1.20293e-10
1.16892e-11
-1.95084e-10
1.99644e-11
-2.6654e-10
3.0315e-11
-3.34209e-10
4.27042e-11
-3.98195e-10
5.70718e-11
-4.58841e-10
7.33501e-11
-5.16446e-10
9.14745e-11
-5.71203e-10
1.1139e-10
-6.2322e-10
1.33052e-10
-6.72556e-10
1.5643e-10
-7.19248e-10
1.81508e-10
-7.63324e-10
2.08285e-10
-8.04817e-10
2.36774e-10
-8.4377e-10
2.67003e-10
-8.80234e-10
2.99018e-10
-9.14273e-10
3.32877e-10
-9.45968e-10
3.68651e-10
-9.75418e-10
4.06418e-10
-1.00275e-09
4.46258e-10
-1.0281e-09
4.88247e-10
-1.05167e-09
5.32447e-10
-1.07368e-09
5.78891e-10
-1.0944e-09
-1.11411e-09
6.27574e-10
1.4363e-12
-4.36631e-11
5.28589e-12
-1.24143e-10
1.12302e-11
-2.01029e-10
1.91916e-11
-2.74502e-10
2.91567e-11
-3.44174e-10
4.10912e-11
-4.10129e-10
5.49374e-11
-4.72687e-10
7.06287e-11
-5.32137e-10
8.81005e-11
-5.88674e-10
1.07295e-10
-6.42415e-10
1.28167e-10
-6.93427e-10
1.50677e-10
-7.41758e-10
1.74804e-10
-7.8745e-10
2.00533e-10
-8.30546e-10
2.27863e-10
-8.71101e-10
2.56807e-10
-9.09177e-10
2.87385e-10
-9.44851e-10
3.19628e-10
-9.78211e-10
3.53574e-10
-1.00936e-09
3.89263e-10
-1.03843e-09
4.26731e-10
-1.06557e-09
4.66006e-10
-1.09095e-09
5.07097e-10
-1.11478e-09
5.49982e-10
-1.13728e-09
-1.15873e-09
5.94602e-10
1.37461e-12
-4.50379e-11
5.06605e-12
-1.27835e-10
1.07719e-11
-2.06735e-10
1.84195e-11
-2.82149e-10
2.79975e-11
-3.53752e-10
3.94738e-11
-4.21606e-10
5.27921e-11
-4.86005e-10
6.78867e-11
-5.47231e-10
8.46922e-11
-6.0548e-10
1.03149e-10
-6.60872e-10
1.23206e-10
-7.13484e-10
1.44821e-10
-7.63373e-10
1.67962e-10
-8.1059e-10
1.92603e-10
-8.55187e-10
2.18731e-10
-8.97228e-10
2.46338e-10
-9.36785e-10
2.75424e-10
-9.73938e-10
3.05996e-10
-1.00878e-09
3.3806e-10
-1.04143e-09
3.71621e-10
-1.072e-09
4.06678e-10
-1.10063e-09
4.43216e-10
-1.12749e-09
4.81198e-10
-1.15276e-09
5.20558e-10
-1.17664e-09
-1.19936e-09
5.61188e-10
1.31294e-12
-4.6351e-11
4.84649e-12
-1.31369e-10
1.03143e-11
-2.12203e-10
1.76483e-11
-2.89483e-10
2.68384e-11
-3.62942e-10
3.78537e-11
-4.32621e-10
5.06392e-11
-4.98791e-10
6.51293e-11
-5.61721e-10
8.12575e-11
-6.21608e-10
9.89618e-11
-6.78576e-10
1.18187e-10
-7.32709e-10
1.38883e-10
-7.8407e-10
1.6101e-10
-8.32717e-10
1.84534e-10
-8.7871e-10
2.09424e-10
-9.22119e-10
2.35658e-10
-9.63019e-10
2.63217e-10
-1.0015e-09
2.92081e-10
-1.03765e-09
3.22232e-10
-1.07158e-09
3.53644e-10
-1.10341e-09
3.86282e-10
-1.13327e-09
4.20096e-10
-1.1613e-09
4.55011e-10
-1.18767e-09
4.90922e-10
-1.21255e-09
-1.23613e-09
5.27684e-10
1.2514e-12
-4.76027e-11
4.62739e-12
-1.34745e-10
9.85794e-12
-2.17433e-10
1.68789e-11
-2.96504e-10
2.56809e-11
-3.71744e-10
3.62338e-11
-4.43174e-10
4.84833e-11
-5.1104e-10
6.23634e-11
-5.75601e-10
7.78064e-11
-6.3705e-10
9.47474e-11
-6.95516e-10
1.13126e-10
-7.51087e-10
1.32888e-10
-8.03832e-10
1.53984e-10
-8.53812e-10
1.76367e-10
-9.01094e-10
1.99998e-10
-9.4575e-10
2.24838e-10
-9.87858e-10
2.50848e-10
-1.02751e-09
2.77989e-10
-1.06479e-09
3.06218e-10
-1.09981e-09
3.35485e-10
-1.13267e-09
3.65727e-10
-1.16351e-09
3.96862e-10
-1.19244e-09
4.28785e-10
-1.2196e-09
4.61362e-10
-1.24513e-09
-1.26918e-09