/*--------------------------------*- C++ -*----------------------------------*\
  =========                 |
  \\      /  F ield         | OpenFOAM: The Open Source CFD Toolbox
   \\    /   O peration     | Website:  https://openfoam.org
    \\  /    A nd           | Version:  13
     \\/     M anipulation  |
\*---------------------------------------------------------------------------*/
FoamFile
{
    format      ascii;
    class       volVectorField;
    location    "11";
    object      U;
}
// * * * * * * * * * * * * * * * * * * * * * * * * * * * * * * * * * * * * * //

dimensions      [0 1 -1 0 0 0 0];

internalField   nonuniform List<vector> 
6440
(
(-7.02915e-08 1.38331e-07 0)
(-8.18909e-08 1.03363e-07 0)
(1.88756e-08 2.25873e-08 -1.47599e-20)
(2.78087e-07 -3.32501e-08 1.47245e-20)
(6.33316e-07 -7.3438e-08 0)
(1.06651e-06 -1.03259e-07 -2.9265e-20)
(1.54585e-06 -1.1613e-07 2.91265e-20)
(2.03391e-06 -1.06307e-07 0)
(2.51391e-06 -7.61783e-08 5.76479e-20)
(2.99305e-06 -5.25631e-08 -5.72464e-20)
(3.43446e-06 -4.36213e-08 -5.68582e-20)
(3.80182e-06 -2.82021e-08 -2.16654e-23)
(4.08796e-06 -1.09495e-08 -1.7419e-23)
(4.27072e-06 8.54519e-09 5.53681e-20)
(4.32929e-06 3.98187e-08 5.48142e-20)
(4.25653e-06 8.01865e-08 -5.42133e-20)
(4.04581e-06 1.21487e-07 0)
(3.67943e-06 1.6767e-07 1.05851e-19)
(3.18748e-06 2.31654e-07 -2.29403e-23)
(2.6477e-06 3.09424e-07 -1.03106e-19)
(2.10951e-06 4.02456e-07 1.01636e-19)
(1.60566e-06 4.80591e-07 -2.00356e-19)
(1.19257e-06 5.00842e-07 9.8695e-20)
(7.93275e-07 4.96375e-07 -9.71537e-20)
(2.57074e-07 3.94831e-07 7.84706e-24)
(-1.1178e-08 7.37502e-08 0)
(2.30311e-07 -4.6206e-07 0)
(6.86407e-07 -1.06278e-06 -1.51893e-20)
(1.3598e-06 -1.54588e-06 1.51543e-20)
(2.18572e-06 -1.894e-06 0)
(3.1065e-06 -2.08007e-06 -3.01231e-20)
(4.04986e-06 -2.08389e-06 2.9986e-20)
(4.93089e-06 -1.90463e-06 0)
(5.66981e-06 -1.5527e-06 0)
(6.24052e-06 -1.0715e-06 0)
(6.65367e-06 -5.10196e-07 0)
(6.88043e-06 1.17102e-07 -5.81297e-20)
(6.88552e-06 7.92564e-07 5.76235e-20)
(6.66114e-06 1.46984e-06 0)
(6.1855e-06 2.07482e-06 5.65566e-20)
(5.44139e-06 2.58467e-06 -5.59595e-20)
(4.45632e-06 2.97387e-06 0)
(3.35238e-06 3.18915e-06 0)
(2.31471e-06 3.21671e-06 1.08026e-19)
(1.47774e-06 2.99094e-06 -1.06649e-19)
(8.32477e-07 2.52797e-06 1.05177e-19)
(3.5153e-07 1.90127e-06 -1.03734e-19)
(8.91054e-08 1.19341e-06 -1.02188e-19)
(4.81944e-08 6.1736e-07 3.5282e-23)
(-9.90429e-08 4.4991e-07 7.79929e-20)
(1.76633e-08 -2.77281e-07 0)
(3.03812e-07 -1.4939e-06 0)
(8.14571e-07 -2.64242e-06 -1.50099e-20)
(1.53313e-06 -3.52866e-06 1.49778e-20)
(2.4056e-06 -4.09788e-06 0)
(3.35872e-06 -4.28496e-06 -2.97844e-20)
(4.29919e-06 -4.06495e-06 5.93265e-20)
(5.14335e-06 -3.47046e-06 -2.95225e-20)
(5.80817e-06 -2.55633e-06 5.87574e-20)
(6.25884e-06 -1.39651e-06 -5.83925e-20)
(6.51379e-06 -9.19756e-08 -5.80354e-20)
(6.57724e-06 1.26946e-06 -1.99438e-23)
(6.39253e-06 2.60749e-06 5.71545e-20)
(5.81744e-06 3.82126e-06 5.66911e-20)
(4.88004e-06 4.8212e-06 1.35047e-23)
(3.73654e-06 5.48925e-06 -5.5626e-20)
(2.4607e-06 5.76068e-06 0)
(1.27519e-06 5.54219e-06 1.08922e-19)
(2.70433e-07 4.86395e-06 -1.07677e-19)
(-5.96893e-07 3.7835e-06 0)
(-1.2062e-06 2.36684e-06 1.0499e-19)
(-1.4978e-06 8.64323e-07 -2.07238e-19)
(-1.47434e-06 -3.47858e-07 1.0222e-19)
(-1.05898e-06 -8.20141e-07 -1.00731e-19)
(-5.56962e-07 -1.59634e-07 7.91473e-20)
(2.06136e-08 -6.1392e-07 0)
(2.16362e-07 -2.40881e-06 0)
(5.9476e-07 -4.02883e-06 -1.47874e-20)
(1.16916e-06 -5.27402e-06 1.47581e-20)
(1.9344e-06 -6.02241e-06 0)
(2.81452e-06 -6.15547e-06 -2.93596e-20)
(3.70894e-06 -5.64772e-06 5.84974e-20)
(4.52845e-06 -4.5695e-06 -2.91199e-20)
(5.21072e-06 -3.05319e-06 0)
(5.71786e-06 -1.23308e-06 0)
(6.07345e-06 7.26028e-07 0)
(6.24745e-06 2.69167e-06 -5.69347e-20)
(6.04381e-06 4.53503e-06 5.65055e-20)
(5.46327e-06 6.10687e-06 5.60883e-20)
(4.65598e-06 7.28086e-06 -5.56035e-20)
(3.63834e-06 7.94116e-06 0)
(2.45554e-06 7.96545e-06 1.09199e-19)
(1.29603e-06 7.22944e-06 -1.08086e-19)
(1.81107e-07 5.77595e-06 0)
(-9.02011e-07 3.83515e-06 0)
(-1.74418e-06 1.62116e-06 0)
(-2.2539e-06 -4.35736e-07 0)
(-2.33129e-06 -1.77717e-06 0)
(-1.72049e-06 -1.9637e-06 -1.00416e-19)
(-8.38223e-07 -5.63204e-07 1.77563e-23)
(1.42926e-08 -8.22207e-07 0)
(6.58315e-08 -3.00651e-06 0)
(2.5715e-07 -5.03659e-06 -1.45335e-20)
(6.34615e-07 -6.64816e-06 1.45067e-20)
(1.23159e-06 -7.60197e-06 0)
(2.00445e-06 -7.70981e-06 -2.88707e-20)
(2.87093e-06 -6.96121e-06 5.75388e-20)
(3.72666e-06 -5.47447e-06 -2.86517e-20)
(4.50318e-06 -3.45078e-06 0)
(5.16933e-06 -1.09414e-06 0)
(5.74238e-06 1.38956e-06 0)
(6.12887e-06 3.838e-06 -5.61125e-20)
(6.20697e-06 6.06134e-06 5.57183e-20)
(6.02257e-06 7.90556e-06 5.53443e-20)
(5.5997e-06 9.19218e-06 -5.48981e-20)
(4.87046e-06 9.78289e-06 0)
(3.78885e-06 9.5844e-06 1.07972e-19)
(2.51063e-06 8.45271e-06 -1.06945e-19)
(1.17503e-06 6.40353e-06 0)
(-2.18235e-07 3.77547e-06 0)
(-1.51089e-06 9.85921e-07 0)
(-2.43039e-06 -1.43937e-06 0)
(-2.76161e-06 -2.82853e-06 0)
(-2.13051e-06 -2.78819e-06 -9.97927e-20)
(-1.03416e-06 -8.68234e-07 8.04678e-20)
(2.5821e-09 -8.84689e-07 0)
(-1.18136e-07 -3.26537e-06 0)
(-1.29907e-07 -5.65128e-06 -1.42572e-20)
(5.43678e-08 -7.69035e-06 1.42327e-20)
(4.72095e-07 -8.90133e-06 0)
(1.1173e-06 -9.0264e-06 -2.83359e-20)
(1.93335e-06 -8.0897e-06 5.64871e-20)
(2.81294e-06 -6.28674e-06 -2.81362e-20)
(3.68013e-06 -3.86114e-06 5.60524e-20)
(4.52465e-06 -1.07926e-06 -5.57726e-20)
(5.36884e-06 1.82441e-06 0)
(6.07628e-06 4.6461e-06 -5.51905e-20)
(6.49694e-06 7.20575e-06 -2.53961e-23)
(6.68564e-06 9.28268e-06 1.08961e-19)
(6.61906e-06 1.06704e-05 -5.40831e-20)
(6.18569e-06 1.1218e-05 0)
(5.26002e-06 1.08635e-05 1.06513e-19)
(3.93143e-06 9.51266e-06 1.63266e-23)
(2.37755e-06 7.15345e-06 -3.78575e-24)
(6.65245e-07 4.1028e-06 -1.03572e-19)
(-9.83431e-07 8.77347e-07 0)
(-2.26217e-06 -1.86604e-06 0)
(-2.89779e-06 -3.34607e-06 0)
(-2.34184e-06 -3.21077e-06 -9.8919e-20)
(-1.15685e-06 -1.02474e-06 8.07173e-20)
(-8.75492e-09 -8.01466e-07 0)
(-2.93838e-07 -3.1974e-06 0)
(-5.39915e-07 -5.89682e-06 -1.39658e-20)
(-5.56633e-07 -8.3846e-06 1.39434e-20)
(-2.8913e-07 -9.92337e-06 2.78373e-20)
(2.03672e-07 -1.01092e-05 -5.55339e-20)
(9.13297e-07 -9.03648e-06 5.53718e-20)
(1.78532e-06 -6.99852e-06 -2.75881e-20)
(2.73725e-06 -4.28725e-06 0)
(3.74089e-06 -1.19728e-06 5.474e-20)
(4.78604e-06 2.00441e-06 -5.44583e-20)
(5.71993e-06 5.09603e-06 -5.4196e-20)
(6.44782e-06 7.86482e-06 5.38644e-20)
(6.97613e-06 1.0108e-05 5.35631e-20)
(7.22435e-06 1.1603e-05 -5.31861e-20)
(7.07404e-06 1.21894e-05 0)
(6.37585e-06 1.17916e-05 1.04878e-19)
(5.11496e-06 1.03803e-05 -1.04004e-19)
(3.4523e-06 7.92844e-06 0)
(1.554e-06 4.66879e-06 1.02161e-19)
(-3.65483e-07 1.15547e-06 -1.01188e-19)
(-1.93862e-06 -1.90072e-06 0)
(-2.82041e-06 -3.59867e-06 0)
(-2.40439e-06 -3.46138e-06 -9.78426e-20)
(-1.23536e-06 -1.09471e-06 2.71264e-23)
(-2.8338e-08 -5.6921e-07 0)
(-4.75993e-07 -2.82293e-06 0)
(-9.23725e-07 -5.83526e-06 -1.3665e-20)
(-1.18243e-06 -8.77713e-06 1.36447e-20)
(-1.09782e-06 -1.06405e-05 0)
(-7.22579e-07 -1.09442e-05 -2.71844e-20)
(-1.29141e-07 -9.78871e-06 2.71046e-20)
(6.93899e-07 -7.58783e-06 0)
(1.68911e-06 -4.71672e-06 0)
(2.79824e-06 -1.46984e-06 0)
(3.99534e-06 1.88092e-06 0)
(5.11003e-06 5.10767e-06 -5.31505e-20)
(6.07014e-06 8.03629e-06 5.28465e-20)
(6.88492e-06 1.0405e-05 0)
(7.42498e-06 1.20226e-05 0)
(7.572e-06 1.27152e-05 0)
(7.1681e-06 1.23893e-05 0)
(6.13148e-06 1.1055e-05 0)
(4.5193e-06 8.67108e-06 1.01508e-19)
(2.50907e-06 5.41706e-06 -1.00639e-19)
(3.74475e-07 1.76943e-06 0)
(-1.47905e-06 -1.52205e-06 0)
(-2.59789e-06 -3.48272e-06 0)
(-2.324e-06 -3.49305e-06 -9.66008e-20)
(-1.25716e-06 -1.03989e-06 8.05545e-20)
(-4.9747e-08 -1.8959e-07 0)
(-6.64407e-07 -2.17225e-06 0)
(-1.30542e-06 -5.49411e-06 -1.33595e-20)
(-1.74996e-06 -8.91279e-06 1.33409e-20)
(-1.87139e-06 -1.10664e-05 0)
(-1.64066e-06 -1.14779e-05 -2.65884e-20)
(-1.12413e-06 -1.03242e-05 5.30382e-20)
(-3.75834e-07 -8.05192e-06 -2.64383e-20)
(6.14557e-07 -5.12799e-06 0)
(1.80856e-06 -1.8675e-06 0)
(3.10958e-06 1.50969e-06 5.23073e-20)
(4.41525e-06 4.75958e-06 -1.04122e-19)
(5.63482e-06 7.75011e-06 5.17938e-20)
(6.69864e-06 1.02304e-05 5.1547e-20)
(7.52895e-06 1.20062e-05 -5.1229e-20)
(7.99161e-06 1.28889e-05 0)
(7.98193e-06 1.27299e-05 -1.01236e-19)
(7.27126e-06 1.1587e-05 1.00495e-19)
(5.80161e-06 9.38498e-06 0)
(3.7824e-06 6.25088e-06 0)
(1.45095e-06 2.61282e-06 0)
(-6.99716e-07 -8.18637e-07 9.7189e-20)
(-2.15492e-06 -3.02465e-06 -9.63055e-20)
(-2.14216e-06 -3.28243e-06 -9.52251e-20)
(-1.24314e-06 -8.72025e-07 8.01935e-20)
(-7.10508e-08 3.22386e-07 0)
(-8.33076e-07 -1.29873e-06 0)
(-1.63607e-06 -4.93182e-06 0)
(-2.24499e-06 -8.82385e-06 0)
(-2.52507e-06 -1.12753e-05 0)
(-2.44764e-06 -1.17824e-05 0)
(-2.01295e-06 -1.0681e-05 0)
(-1.28535e-06 -8.45889e-06 0)
(-3.02055e-07 -5.58632e-06 -5.15651e-20)
(9.72283e-07 -2.39001e-06 5.13692e-20)
(2.43433e-06 8.68473e-07 0)
(3.96232e-06 4.03721e-06 0)
(5.45744e-06 6.99769e-06 0)
(6.84238e-06 9.55488e-06 0)
(8.01725e-06 1.15044e-05 0)
(8.82623e-06 1.26483e-05 0)
(9.20983e-06 1.28117e-05 0)
(8.8395e-06 1.19719e-05 -9.86517e-20)
(7.56407e-06 1.01113e-05 9.7939e-20)
(5.58357e-06 7.24774e-06 0)
(3.09653e-06 3.72624e-06 -9.64337e-20)
(5.70456e-07 2.43081e-07 9.56411e-20)
(-1.41005e-06 -2.14238e-06 0)
(-1.77007e-06 -2.71808e-06 0)
(-1.13743e-06 -5.65313e-07 0)
(-9.23933e-08 9.42306e-07 0)
(-9.72386e-07 -2.67073e-07 0)
(-1.89526e-06 -4.23476e-06 0)
(-2.62169e-06 -8.59965e-06 0)
(-3.01284e-06 -1.13362e-05 0)
(-3.02285e-06 -1.19849e-05 0)
(-2.63189e-06 -1.09772e-05 2.5338e-20)
(-1.88552e-06 -8.91051e-06 -2.52673e-20)
(-7.90309e-07 -6.24739e-06 -5.04118e-20)
(5.97716e-07 -3.23223e-06 5.02322e-20)
(2.20077e-06 -1.04785e-07 5.0075e-20)
(4.04293e-06 2.97547e-06 -4.98582e-20)
(5.96357e-06 5.83913e-06 0)
(7.77478e-06 8.39694e-06 4.94337e-20)
(9.34682e-06 1.04891e-05 2.25126e-23)
(1.05842e-05 1.1914e-05 -4.89032e-20)
(1.1378e-05 1.24919e-05 0)
(1.13505e-05 1.2109e-05 -9.67122e-20)
(1.03239e-05 1.08123e-05 9.60549e-20)
(8.36953e-06 8.45784e-06 0)
(5.64184e-06 5.28307e-06 0)
(2.6592e-06 1.78928e-06 9.38967e-20)
(6.54661e-09 -8.15868e-07 -9.31415e-20)
(-1.07361e-06 -1.75535e-06 0)
(-9.91859e-07 -7.21651e-08 0)
(-1.11217e-07 1.64232e-06 0)
(-1.06643e-06 8.63188e-07 0)
(-2.04555e-06 -3.46287e-06 0)
(-2.81561e-06 -8.29127e-06 0)
(-3.23698e-06 -1.13222e-05 0)
(-3.24404e-06 -1.21537e-05 0)
(-2.8091e-06 -1.13326e-05 0)
(-1.9867e-06 -9.53719e-06 0)
(-7.13882e-07 -7.18215e-06 0)
(1.00236e-06 -4.4752e-06 0)
(3.04083e-06 -1.60839e-06 -4.89589e-20)
(5.26607e-06 1.24532e-06 4.876e-20)
(7.5536e-06 4.07282e-06 0)
(9.85518e-06 6.74187e-06 0)
(1.19715e-05 9.10091e-06 0)
(1.37371e-05 1.09192e-05 0)
(1.49718e-05 1.19263e-05 0)
(1.54111e-05 1.20547e-05 0)
(1.4703e-05 1.14453e-05 0)
(1.27105e-05 9.9145e-06 0)
(9.56798e-06 7.37454e-06 0)
(5.8584e-06 4.14142e-06 -9.21582e-20)
(2.23076e-06 1.2822e-06 9.14599e-20)
(6.45299e-08 -2.08592e-07 0)
(-7.23868e-07 6.8879e-07 0)
(-1.22959e-07 2.3797e-06 0)
(-1.08052e-06 2.00509e-06 0)
(-2.02633e-06 -2.71525e-06 0)
(-2.76012e-06 -8.00531e-06 0)
(-3.10125e-06 -1.13466e-05 2.42459e-20)
(-2.96614e-06 -1.24355e-05 -2.4203e-20)
(-2.39909e-06 -1.19266e-05 0)
(-1.36045e-06 -1.05065e-05 0)
(3.38702e-07 -8.50961e-06 -4.81293e-20)
(2.52807e-06 -6.1657e-06 9.59774e-20)
(4.94427e-06 -3.62461e-06 2.12825e-23)
(7.77773e-06 -1.01608e-06 -4.76706e-20)
(1.09318e-05 1.56704e-06 0)
(1.40087e-05 4.20719e-06 0)
(1.67256e-05 6.85877e-06 4.7105e-20)
(1.88654e-05 9.39832e-06 -4.68634e-20)
(2.04652e-05 1.13698e-05 -9.32716e-20)
(2.14679e-05 1.23578e-05 -2.22919e-23)
(2.12933e-05 1.23508e-05 9.21986e-20)
(1.93208e-05 1.15773e-05 9.16527e-20)
(1.56247e-05 1.0057e-05 -9.10474e-20)
(1.08798e-05 7.41279e-06 9.03845e-20)
(5.79669e-06 4.42874e-06 -8.97384e-20)
(2.05734e-06 2.06178e-06 0)
(-1.61708e-07 1.63769e-06 0)
(-1.283e-07 3.09486e-06 0)
(-9.98935e-07 3.0253e-06 0)
(-1.79853e-06 -2.16667e-06 0)
(-2.36288e-06 -7.92467e-06 0)
(-2.48505e-06 -1.16213e-05 0)
(-2.08822e-06 -1.30688e-05 0)
(-1.19402e-06 -1.29727e-05 0)
(3.59696e-07 -1.19692e-05 0)
(2.66858e-06 -1.0459e-05 -4.70103e-20)
(5.44995e-06 -8.60385e-06 4.68707e-20)
(8.66776e-06 -6.41568e-06 0)
(1.22649e-05 -3.92652e-06 0)
(1.61188e-05 -1.3259e-06 0)
(2.01469e-05 1.25328e-06 0)
(2.39803e-05 3.92987e-06 0)
(2.71625e-05 6.8838e-06 0)
(2.93242e-05 9.99712e-06 0)
(3.04071e-05 1.27125e-05 -9.08029e-20)
(3.02887e-05 1.42147e-05 9.02853e-20)
(2.87195e-05 1.43679e-05 0)
(2.48039e-05 1.33659e-05 0)
(1.8625e-05 1.16162e-05 0)
(1.13204e-05 8.67684e-06 0)
(4.98814e-06 5.37655e-06 0)
(6.30704e-07 2.85947e-06 0)
(-1.32231e-07 3.7231e-06 0)
(-8.23729e-07 3.79359e-06 0)
(-1.31595e-06 -1.9454e-06 0)
(-1.55081e-06 -8.26147e-06 0)
(-1.31252e-06 -1.23953e-05 0)
(-4.11113e-07 -1.429e-05 0)
(1.13241e-06 -1.47034e-05 0)
(3.36181e-06 -1.4198e-05 0)
(6.40646e-06 -1.32246e-05 0)
(1.01823e-05 -1.19205e-05 0)
(1.4481e-05 -1.01685e-05 4.56879e-20)
(1.92029e-05 -8.02149e-06 -4.55323e-20)
(2.41075e-05 -5.37675e-06 0)
(2.90642e-05 -2.38492e-06 0)
(3.40192e-05 7.20719e-07 4.5068e-20)
(3.85051e-05 4.08028e-06 -4.4862e-20)
(4.19678e-05 7.93935e-06 -8.93302e-20)
(4.37467e-05 1.22906e-05 8.88728e-20)
(4.373e-05 1.6233e-05 0)
(4.16432e-05 1.8919e-05 0)
(3.73823e-05 1.92369e-05 0)
(3.01555e-05 1.74405e-05 8.68199e-20)
(1.99703e-05 1.43962e-05 -1.7248e-19)
(9.77105e-06 9.79132e-06 8.56438e-20)
(1.88837e-06 4.61831e-06 0)
(-1.15069e-07 4.1897e-06 0)
(-4.88049e-07 4.15286e-06 0)
(-5.85978e-07 -2.26829e-06 0)
(-3.40573e-07 -9.22639e-06 0)
(5.55162e-07 -1.38933e-05 0)
(2.22031e-06 -1.63828e-05 0)
(4.65958e-06 -1.74671e-05 -2.24926e-20)
(7.91045e-06 -1.76409e-05 2.24458e-20)
(1.20015e-05 -1.71823e-05 -4.48309e-20)
(1.69058e-05 -1.62797e-05 4.47117e-20)
(2.25268e-05 -1.49651e-05 -4.46309e-20)
(2.87208e-05 -1.3123e-05 4.4487e-20)
(3.52075e-05 -1.06347e-05 0)
(4.16124e-05 -7.26525e-06 -4.42351e-20)
(4.78085e-05 -3.18051e-06 4.40566e-20)
(5.37379e-05 1.26249e-06 0)
(5.88503e-05 6.27438e-06 0)
(6.21441e-05 1.21016e-05 -8.70043e-20)
(6.29821e-05 1.84768e-05 -3.11251e-24)
(6.08901e-05 2.42207e-05 8.61018e-20)
(5.51513e-05 2.80816e-05 0)
(4.6013e-05 2.75197e-05 -8.50884e-20)
(3.28592e-05 2.28944e-05 8.45759e-20)
(1.73263e-05 1.61911e-05 0)
(4.21315e-06 7.11957e-06 -7.45486e-20)
(-8.90634e-08 4.42223e-06 0)
(-6.15369e-08 3.96285e-06 0)
(4.04075e-07 -3.29304e-06 0)
(1.38222e-06 -1.09821e-05 0)
(3.12572e-06 -1.63426e-05 0)
(5.77913e-06 -1.96066e-05 0)
(9.42691e-06 -2.1509e-05 0)
(1.40831e-05 -2.251e-05 0)
(1.96777e-05 -2.27783e-05 0)
(2.60731e-05 -2.23617e-05 0)
(3.32366e-05 -2.12819e-05 0)
(4.11435e-05 -1.95485e-05 0)
(4.95834e-05 -1.70928e-05 0)
(5.81507e-05 -1.3621e-05 0)
(6.63202e-05 -8.73931e-06 0)
(7.39802e-05 -2.61154e-06 0)
(8.09531e-05 4.33535e-06 0)
(8.62415e-05 1.23968e-05 0)
(8.88273e-05 2.1402e-05 0)
(8.76508e-05 3.05788e-05 0)
(8.12776e-05 3.85938e-05 0)
(6.8742e-05 4.22967e-05 0)
(5.10698e-05 3.7589e-05 0)
(2.91852e-05 2.66317e-05 0)
(8.19338e-06 1.12416e-05 0)
(-4.40214e-08 4.34458e-06 5.0136e-21)
(5.04513e-07 3.09856e-06 5.38268e-21)
(1.65876e-06 -5.187e-06 -1.07582e-20)
(3.51154e-06 -1.37665e-05 2.15061e-20)
(6.36073e-06 -2.00297e-05 -2.14824e-20)
(1.03198e-05 -2.42308e-05 0)
(1.54596e-05 -2.70921e-05 2.14387e-20)
(2.17645e-05 -2.90259e-05 2.14163e-20)
(2.91651e-05 -3.01538e-05 -8.54656e-20)
(3.75405e-05 -3.04192e-05 4.26402e-20)
(4.67607e-05 -2.96742e-05 4.25727e-20)
(5.66941e-05 -2.78481e-05 -4.2449e-20)
(6.72571e-05 -2.49079e-05 -4.23673e-20)
(7.83029e-05 -2.07967e-05 8.44746e-20)
(8.93563e-05 -1.51714e-05 2.70386e-23)
(9.9748e-05 -7.48095e-06 4.20141e-20)
(0.000109249 2.17397e-06 -8.36335e-20)
(0.000117099 1.3268e-05 -8.33519e-20)
(0.000122155 2.59738e-05 1.65967e-19)
(0.000123376 3.94084e-05 -8.25987e-20)
(0.00011788 5.20267e-05 0)
(0.000102977 5.98695e-05 8.1794e-20)
(7.87563e-05 5.7461e-05 -1.62694e-19)
(4.67412e-05 4.25233e-05 8.08871e-20)
(1.52096e-05 1.82864e-05 7.26136e-20)
(2.36949e-08 3.92573e-06 0)
(1.11618e-06 1.4869e-06 0)
(3.08328e-06 -8.08004e-06 0)
(6.03439e-06 -1.77692e-05 0)
(1.02027e-05 -2.51479e-05 0)
(1.57113e-05 -3.05216e-05 0)
(2.25999e-05 -3.45681e-05 0)
(3.08325e-05 -3.76168e-05 0)
(4.0336e-05 -3.9713e-05 0)
(5.10042e-05 -4.07518e-05 0)
(6.2726e-05 -4.0567e-05 0)
(7.5358e-05 -3.89796e-05 0)
(8.86702e-05 -3.57906e-05 0)
(0.000102442 -3.088e-05 0)
(0.000116503 -2.41098e-05 0)
(0.000130532 -1.5079e-05 0)
(0.00014338 -2.92685e-06 0)
(0.000154434 1.22621e-05 0)
(0.000163297 3.05171e-05 -8.12382e-20)
(0.000167865 5.06085e-05 8.08646e-20)
(0.000164234 7.04828e-05 0)
(0.000148897 8.47817e-05 0)
(0.000119718 8.54568e-05 0)
(7.74371e-05 6.72966e-05 0)
(3.15352e-05 3.38293e-05 0)
(1.05946e-07 3.14836e-06 0)
(1.76996e-06 -9.97682e-07 0)
(4.63074e-06 -1.21874e-05 0)
(8.80789e-06 -2.334e-05 0)
(1.44693e-05 -3.21437e-05 0)
(2.17042e-05 -3.89652e-05 0)
(3.05166e-05 -4.44235e-05 0)
(4.08629e-05 -4.87627e-05 0)
(5.26704e-05 -5.19477e-05 0)
(6.58238e-05 -5.38002e-05 0)
(8.01744e-05 -5.40754e-05 -4.06015e-20)
(9.55625e-05 -5.25189e-05 4.04943e-20)
(0.000111809 -4.88344e-05 0)
(0.00012873 -4.26502e-05 0)
(0.000146133 -3.36266e-05 0)
(0.000163784 -2.14942e-05 0)
(0.000181061 -5.71285e-06 0)
(0.000197438 1.48253e-05 0)
(0.000211468 4.01695e-05 0)
(0.000221213 6.86992e-05 0)
(0.000223244 9.62884e-05 0)
(0.000212721 0.000115014 -7.8676e-20)
(0.000184752 0.00011389 7.82951e-20)
(0.000138481 8.92844e-05 0)
(7.55407e-05 4.82599e-05 0)
(1.52113e-07 2.06332e-06 0)
(2.28613e-06 -3.98759e-06 0)
(6.03697e-06 -1.69077e-05 0)
(1.14285e-05 -2.97755e-05 0)
(1.85126e-05 -4.03446e-05 0)
(2.73404e-05 -4.89523e-05 0)
(3.7905e-05 -5.61456e-05 0)
(5.01618e-05 -6.21132e-05 0)
(6.40475e-05 -6.67881e-05 0)
(7.94747e-05 -6.99744e-05 0)
(9.63256e-05 -7.13864e-05 0)
(0.000114471 -7.068e-05 0)
(0.000133772 -6.74715e-05 0)
(0.000154055 -6.13127e-05 0)
(0.000175072 -5.16831e-05 0)
(0.000196592 -3.8034e-05 0)
(0.000218547 -1.9848e-05 0)
(0.000240671 3.75561e-06 0)
(0.000261875 3.31713e-05 0)
(0.000280523 6.82235e-05 0)
(0.000293665 0.000104653 0)
(0.00029664 0.000134629 0)
(0.000283231 0.000146156 0)
(0.000249713 0.000138819 0)
(0.000177906 0.000139819 0)
(2.14018e-07 7.78537e-07 0)
(2.74363e-06 -7.23274e-06 0)
(7.20546e-06 -2.18399e-05 0)
(1.35775e-05 -3.64577e-05 0)
(2.18411e-05 -4.8863e-05 0)
(3.20043e-05 -5.93165e-05 0)
(4.40411e-05 -6.83116e-05 0)
(5.79022e-05 -7.60147e-05 0)
(7.35272e-05 -8.23452e-05 0)
(9.08513e-05 -8.71053e-05 0)
(0.000109804 -9.00315e-05 0)
(0.000130314 -9.08073e-05 0)
(0.000152306 -8.90665e-05 0)
(0.0001757 -8.43771e-05 0)
(0.000200417 -7.61987e-05 0)
(0.000226379 -6.38207e-05 0)
(0.00025359 -4.64762e-05 0)
(0.000282203 -2.34852e-05 0)
(0.000312165 5.8164e-06 0)
(0.000342946 4.1899e-05 0)
(0.000373355 8.32117e-05 0)
(0.000400864 0.000125244 0)
(0.000419951 0.00015933 0)
(0.000421072 0.000181045 0)
(0.000387605 0.000209959 0)
(2.5397e-07 -7.23649e-07 0)
(3.14042e-06 -1.10753e-05 0)
(8.25638e-06 -2.77122e-05 0)
(1.55348e-05 -4.43243e-05 0)
(2.48971e-05 -5.873e-05 0)
(3.63178e-05 -7.11586e-05 0)
(4.9755e-05 -8.20843e-05 0)
(6.51582e-05 -9.16685e-05 0)
(8.24774e-05 -9.98253e-05 0)
(0.000101667 -0.000106347 0)
(0.000122689 -0.000110965 0)
(0.000145517 -0.000113373 0)
(0.000170131 -0.000113233 0)
(0.000196525 -0.000110137 0)
(0.000224735 -0.000103591 0)
(0.000254838 -9.29928e-05 0)
(0.000286958 -7.76134e-05 0)
(0.000321394 -5.66887e-05 0)
(0.00035852 -2.95917e-05 0)
(0.000398369 4.10509e-06 0)
(0.000440567 4.39742e-05 0)
(0.000483696 8.78963e-05 0)
(0.000523476 0.000131594 0)
(0.000550912 0.000173444 0)
(0.000552245 0.000228694 0)
(2.81819e-07 -2.40985e-06 0)
(3.47692e-06 -1.53975e-05 0)
(9.16697e-06 -3.43144e-05 0)
(1.72429e-05 -5.31246e-05 0)
(2.75763e-05 -6.96982e-05 0)
(4.01149e-05 -8.42511e-05 0)
(5.48043e-05 -9.72539e-05 0)
(7.15916e-05 -0.000108873 0)
(9.04349e-05 -0.00011903 0)
(0.000111307 -0.000127523 0)
(0.000134194 -0.000134091 0)
(0.000159092 -0.000138439 0)
(0.000186011 -0.000140252 0)
(0.000214998 -0.000139152 0)
(0.000246121 -0.000134694 0)
(0.000279502 -0.000126358 0)
(0.000315331 -0.000113513 0)
(0.000353884 -9.54363e-05 0)
(0.000395479 -7.14604e-05 0)
(0.000440229 -4.10464e-05 0)
(0.00048793 -3.86179e-06 0)
(0.000537463 3.9803e-05 0)
(0.00058549 8.96028e-05 0)
(0.000625236 0.000147605 0)
(0.000647199 0.000225824 0)
(3.03121e-07 -4.25169e-06 0)
(3.7595e-06 -2.01357e-05 0)
(9.93655e-06 -4.15472e-05 0)
(1.86879e-05 -6.2729e-05 0)
(2.98467e-05 -8.16136e-05 0)
(4.33401e-05 -9.84145e-05 0)
(5.91027e-05 -0.000113606 0)
(7.70776e-05 -0.000127366 0)
(9.72249e-05 -0.000139633 0)
(0.000119523 -0.000150217 0)
(0.000143969 -0.000158876 0)
(0.000170567 -0.000165338 0)
(0.000199341 -0.0001693 0)
(0.000230345 -0.000170419 0)
(0.000263648 -0.000168294 0)
(0.000299356 -0.000162439 0)
(0.00033762 -0.000152274 0)
(0.000378626 -0.000137114 0)
(0.000422544 -0.0001162 0)
(0.000469338 -8.86941e-05 0)
(0.000518578 -5.36313e-05 0)
(0.000569344 -1.00022e-05 0)
(0.000619316 4.39145e-05 0)
(0.000664168 0.000112096 0)
(0.000698924 0.000203721 0)
(3.19104e-07 -6.22058e-06 0)
(3.9869e-06 -2.52224e-05 0)
(1.05589e-05 -4.93112e-05 0)
(1.98582e-05 -7.30151e-05 0)
(3.16886e-05 -9.43393e-05 0)
(4.59618e-05 -0.000113501 0)
(6.2602e-05 -0.000130985 0)
(8.15458e-05 -0.000146987 0)
(0.00010275 -0.000161465 0)
(0.000126191 -0.000174248 0)
(0.000151861 -0.000185107 0)
(0.000179766 -0.000193789 0)
(0.000209924 -0.000200005 0)
(0.000242375 -0.000203436 0)
(0.000277166 -0.000203703 0)
(0.000314361 -0.00020034 0)
(0.000354037 -0.000192775 0)
(0.000396268 -0.000180307 0)
(0.000441096 -0.000162081 0)
(0.000488401 -0.000137041 0)
(0.000537739 -0.000103748 0)
(0.000588306 -6.02897e-05 0)
(0.00063884 -4.09941e-06 0)
(0.000687399 6.90371e-05 0)
(0.000732444 0.000165702 0)
(3.30094e-07 -8.28733e-06 0)
(4.15851e-06 -3.05834e-05 0)
(1.10326e-05 -5.74947e-05 0)
(2.07518e-05 -8.38414e-05 0)
(3.30994e-05 -0.00010771 0)
(4.79745e-05 -0.000129326 0)
(6.52926e-05 -0.000149187 0)
(8.4982e-05 -0.000167509 0)
(0.000106991 -0.000184271 0)
(0.000131289 -0.000199318 0)
(0.00015786 -0.000212439 0)
(0.000186699 -0.000223389 0)
(0.000217811 -0.000231893 0)
(0.000251213 -0.000237642 0)
(0.000286924 -0.000240264 0)
(0.000324965 -0.000239298 0)
(0.000365356 -0.000234164 0)
(0.000408092 -0.000224119 0)
(0.000453126 -0.000208217 0)
(0.000500357 -0.000185254 0)
(0.000549531 -0.000153604 0)
(0.000600221 -0.000111054 0)
(0.000652011 -5.47379e-05 0)
(0.000704654 1.89721e-05 0)
(0.000758866 0.000114456 0)
(3.36591e-07 -1.04239e-05 0)
(4.27682e-06 -3.61453e-05 0)
(1.13633e-05 -6.59865e-05 0)
(2.13797e-05 -9.50662e-05 0)
(3.40951e-05 -0.000121557 0)
(4.94006e-05 -0.000145697 0)
(6.72037e-05 -0.000167996 0)
(8.74235e-05 -0.00018869 0)
(0.000109999 -0.000207777 0)
(0.000134887 -0.000225122 0)
(0.000162061 -0.000240523 0)
(0.000191503 -0.000253746 0)
(0.000223203 -0.000264523 0)
(0.000257155 -0.000272549 0)
(0.000293354 -0.000277451 0)
(0.000331793 -0.000278766 0)
(0.000372463 -0.0002759 0)
(0.000415338 -0.000268089 0)
(0.000460372 -0.000254339 0)
(0.000507515 -0.000233371 0)
(0.000556752 -0.000203559 0)
(0.000608123 -0.000162786 0)
(0.000661903 -0.000108454 0)
(0.000718911 -3.76683e-05 0)
(0.000780956 5.23315e-05 0)
(3.39273e-07 -1.26042e-05 0)
(4.34634e-06 -4.18391e-05 0)
(1.15624e-05 -7.46829e-05 0)
(2.17621e-05 -0.000106557 0)
(3.47073e-05 -0.000135725 0)
(5.02843e-05 -0.000162437 0)
(6.83938e-05 -0.000187213 0)
(8.8946e-05 -0.000210309 0)
(0.000111869 -0.00023174 0)
(0.000137109 -0.000251387 0)
(0.000164628 -0.000269061 0)
(0.000194394 -0.000284536 0)
(0.000226384 -0.000297549 0)
(0.000260578 -0.000307794 0)
(0.000296957 -0.0003149 0)
(0.000335504 -0.0003184 0)
(0.000376205 -0.000317697 0)
(0.000419057 -0.00031203 0)
(0.000464069 -0.000300422 0)
(0.000511303 -0.000281632 0)
(0.000560946 -0.000254132 0)
(0.000613397 -0.000216087 0)
(0.000669421 -0.000165398 0)
(0.000730402 -9.99647e-05 0)
(0.000798581 -1.81811e-05 0)
(3.38712e-07 -1.48049e-05 0)
(4.37278e-06 -4.76029e-05 0)
(1.16444e-05 -8.34902e-05 0)
(2.1926e-05 -0.000118194 0)
(3.49779e-05 -0.000150072 0)
(5.06841e-05 -0.000179385 0)
(6.89407e-05 -0.00020666 0)
(8.96496e-05 -0.000232168 0)
(0.00011273 -0.000255944 0)
(0.000138118 -0.000277884 0)
(0.000165764 -0.00029781 0)
(0.000195629 -0.000315504 0)
(0.000227679 -0.000330708 0)
(0.000261888 -0.00034312 0)
(0.000298234 -0.000352371 0)
(0.000336706 -0.000358003 0)
(0.000377309 -0.000359431 0)
(0.000420078 -0.000355924 0)
(0.000465102 -0.000346567 0)
(0.000512566 -0.000330235 0)
(0.000562823 -0.000305594 0)
(0.000616498 -0.000271142 0)
(0.00067462 -0.000225306 0)
(0.000738784 -0.000166688 0)
(0.000811269 -9.45127e-05 0)
(3.35315e-07 -1.70059e-05 0)
(4.36208e-06 -5.33821e-05 0)
(1.1626e-05 -9.23262e-05 0)
(2.19021e-05 -0.000129873 0)
(3.49543e-05 -0.000164476 0)
(5.06668e-05 -0.000196401 0)
(6.89328e-05 -0.00022618 0)
(8.96485e-05 -0.0002541 0)
(0.000112725 -0.00028021 0)
(0.000138092 -0.000304423 0)
(0.000165692 -0.000326573 0)
(0.000195478 -0.00034645 0)
(0.000227414 -0.000363805 0)
(0.000261474 -0.000378344 0)
(0.000297642 -0.000389709 0)
(0.000335924 -0.00039746 0)
(0.000376353 -0.000401047 0)
(0.000419016 -0.000399791 0)
(0.000464075 -0.000392868 0)
(0.000511818 -0.000379306 0)
(0.000562718 -0.000358005 0)
(0.000617526 -0.0003278 0)
(0.00067736 -0.000287582 0)
(0.00074381 -0.000236516 0)
(0.000818967 -0.000174377 0)
(3.29494e-07 -1.91904e-05 0)
(4.32068e-06 -5.91311e-05 0)
(1.15243e-05 -0.000101121 0)
(2.17224e-05 -0.000141506 0)
(3.46858e-05 -0.000178829 0)
(5.03016e-05 -0.000213364 0)
(6.84622e-05 -0.000245642 0)
(8.90604e-05 -0.000275962 0)
(0.000112003 -0.000304389 0)
(0.000137213 -0.000330851 0)
(0.000164628 -0.000355196 0)
(0.000194201 -0.000377224 0)
(0.000225894 -0.000396699 0)
(0.000259687 -0.00041334 0)
(0.000295577 -0.000426811 0)
(0.000333591 -0.000436699 0)
(0.000373795 -0.000442504 0)
(0.000416321 -0.000443619 0)
(0.000461395 -0.000439332 0)
(0.000509376 -0.000428833 0)
(0.000560811 -0.00041125 0)
(0.000616496 -0.000385723 0)
(0.000677539 -0.000351524 0)
(0.000745407 -0.000308234 0)
(0.000821924 -0.000255992 0)
(3.21918e-07 -2.1345e-05 0)
(4.25501e-06 -6.48126e-05 0)
(1.13565e-05 -0.000109819 0)
(2.14178e-05 -0.000153018 0)
(3.42204e-05 -0.000193047 0)
(4.9656e-05 -0.000230177 0)
(6.76184e-05 -0.000264939 0)
(8.79992e-05 -0.00029764 0)
(0.000110702 -0.000328363 0)
(0.000135649 -0.000357049 0)
(0.000162774 -0.00038356 0)
(0.000192031 -0.000407714 0)
(0.000223387 -0.000429287 0)
(0.000256828 -0.00044802 0)
(0.000292368 -0.000463602 0)
(0.000330052 -0.000475663 0)
(0.00036998 -0.000483759 0)
(0.000412321 -0.000487368 0)
(0.000457343 -0.000485894 0)
(0.000505449 -0.000478688 0)
(0.000557216 -0.000465086 0)
(0.000613435 -0.000444486 0)
(0.000675147 -0.000416448 0)
(0.000743652 -0.000380844 0)
(0.000820481 -0.000338036 0)
(3.13129e-07 -2.34594e-05 0)
(4.17095e-06 -7.03974e-05 0)
(1.11378e-05 -0.000118375 0)
(2.10171e-05 -0.000164353 0)
(3.36023e-05 -0.000207059 0)
(4.8792e-05 -0.000246762 0)
(6.64832e-05 -0.000283986 0)
(8.65684e-05 -0.000319046 0)
(0.000108951 -0.000352039 0)
(0.000133552 -0.000382923 0)
(0.000160307 -0.000411577 0)
(0.000189171 -0.000437834 0)
(0.000220117 -0.000461491 0)
(0.000253142 -0.000482314 0)
(0.000288271 -0.000500024 0)
(0.000325572 -0.000514298 0)
(0.000365165 -0.000524756 0)
(0.000407247 -0.000530962 0)
(0.000452112 -0.000532437 0)
(0.000500179 -0.000528679 0)
(0.000552022 -0.000519206 0)
(0.000608394 -0.000503624 0)
(0.00067024 -0.000481712 0)
(0.000738688 -0.000453534 0)
(0.000815006 -0.000419571 0)
(3.03521e-07 -2.5526e-05 0)
(4.07333e-06 -7.58639e-05 0)
(1.08818e-05 -0.000126756 0)
(2.05452e-05 -0.000175467 0)
(3.28704e-05 -0.000220814 0)
(4.77641e-05 -0.000263058 0)
(6.51282e-05 -0.000302716 0)
(8.48579e-05 -0.000340108 0)
(0.000106858 -0.000375346 0)
(0.00013105 -0.000408404 0)
(0.000157373 -0.000439178 0)
(0.000185784 -0.00046752 0)
(0.000216264 -0.000493252 0)
(0.000248817 -0.000516166 0)
(0.000283482 -0.000536022 0)
(0.00032034 -0.000552545 0)
(0.000359529 -0.00056542 0)
(0.000401259 -0.000574298 0)
(0.000445832 -0.000578806 0)
(0.000493664 -0.000578576 0)
(0.000545303 -0.000573278 0)
(0.00060144 -0.00056268 0)
(0.000662916 -0.000546722 0)
(0.000730694 -0.000525596 0)
(0.000805819 -0.000499838 0)
(2.9342e-07 -2.75393e-05 0)
(3.96626e-06 -8.11964e-05 0)
(1.05994e-05 -0.000134936 0)
(2.00227e-05 -0.000186326 0)
(3.20569e-05 -0.00023427 0)
(4.66177e-05 -0.000279019 0)
(6.3613e-05 -0.000321079 0)
(8.29417e-05 -0.000360775 0)
(0.000104512 -0.00039823 0)
(0.000128247 -0.000433437 0)
(0.000154088 -0.000466309 0)
(0.000181999 -0.000496722 0)
(0.000211964 -0.000524519 0)
(0.000243995 -0.000549525 0)
(0.000278141 -0.000571539 0)
(0.000314491 -0.000590334 0)
(0.000353192 -0.000605661 0)
(0.000394457 -0.00061725 0)
(0.000438584 -0.000624826 0)
(0.000485969 -0.000628132 0)
(0.000537118 -0.000626965 0)
(0.000592651 -0.000621221 0)
(0.000653298 -0.000610951 0)
(0.000719873 -0.000596429 0)
(0.000793233 -0.000578206 0)
(2.83071e-07 -2.94956e-05 0)
(3.85286e-06 -8.63844e-05 0)
(1.02996e-05 -0.000142899 0)
(1.94661e-05 -0.000196909 0)
(3.11877e-05 -0.000247401 0)
(4.53891e-05 -0.000294613 0)
(6.19847e-05 -0.000339039 0)
(8.08786e-05 -0.000381006 0)
(0.000101982 -0.00042065 0)
(0.000125221 -0.000457979 0)
(0.000150542 -0.000492928 0)
(0.000177909 -0.000525392 0)
(0.000207314 -0.000555244 0)
(0.000238774 -0.000582337 0)
(0.000272342 -0.00060651 0)
(0.000308111 -0.000627587 0)
(0.000346229 -0.000645375 0)
(0.000386904 -0.000659678 0)
(0.000430419 -0.000670305 0)
(0.000477138 -0.000677096 0)
(0.000527517 -0.000679946 0)
(0.000582099 -0.000678848 0)
(0.000641509 -0.000673935 0)
(0.000706424 -0.000665525 0)
(0.000777539 -0.000654165 0)
(2.72686e-07 -3.13928e-05 0)
(3.73573e-06 -9.14207e-05 0)
(9.98888e-06 -0.000150635 0)
(1.88881e-05 -0.0002072 0)
(3.02825e-05 -0.000260185 0)
(4.41059e-05 -0.000309815 0)
(6.02796e-05 -0.000356568 0)
(7.87125e-05 -0.000400771 0)
(9.932e-05 -0.000442572 0)
(0.000122032 -0.000481995 0)
(0.000146796 -0.000518995 0)
(0.000173583 -0.000553491 0)
(0.000202384 -0.00058538 0)
(0.00023322 -0.000614547 0)
(0.000266146 -0.000640869 0)