/*--------------------------------*- C++ -*----------------------------------*\
  =========                 |
  \\      /  F ield         | OpenFOAM: The Open Source CFD Toolbox
   \\    /   O peration     | Website:  https://openfoam.org
    \\  /    A nd           | Version:  13
     \\/     M anipulation  |
\*---------------------------------------------------------------------------*/
FoamFile
{
    format      ascii;
    class       volVectorField;
    location    "11";
    object      U;
}
// * * * * * * * * * * * * * * * * * * * * * * * * * * * * * * * * * * * * * //

dimensions      [0 1 -1 0 0 0 0];

internalField   nonuniform List<vector> 
6440
(
(-0.0137705 0.0512179 0)
(-0.0655269 0.0795298 0)
(-0.164427 0.0911243 -4.59854e-16)
(-0.300329 0.0752372 3.52119e-16)
(-0.436993 0.041217 0)
(-0.550241 0.00479937 -5.27359e-16)
(-0.622341 -0.0229908 4.97999e-16)
(-0.650491 -0.0326858 0)
(-0.643407 -0.034962 0)
(-0.614517 -0.0249828 0)
(-0.578229 -0.0128717 1.05331e-15)
(-0.540071 -0.00962354 -2.21936e-15)
(-0.499781 -0.011806 1.17611e-15)
(-0.45482 -0.0198328 0)
(-0.402849 -0.0401726 -2.71525e-15)
(-0.338208 -0.0712787 3.00411e-15)
(-0.255241 -0.103402 0)
(-0.15024 -0.119031 0)
(-0.0477182 -0.109419 0)
(0.0321668 -0.0844313 0)
(0.0955607 -0.0607332 -6.07577e-15)
(0.146919 -0.0369646 1.12792e-14)
(0.169845 -0.0122342 -5.56848e-15)
(0.153619 0.0233622 -6.02927e-15)
(0.0783119 0.055975 6.95176e-15)
(-0.0271346 0.181593 0)
(-0.127482 0.222373 0)
(-0.256324 0.214167 -3.33787e-16)
(-0.38951 0.165047 2.89003e-16)
(-0.507116 0.10064 0)
(-0.587872 0.0379697 -5.33622e-16)
(-0.64492 -0.0188033 1.09312e-15)
(-0.653621 -0.069221 -5.70741e-16)
(-0.638356 -0.109363 0)
(-0.620086 -0.129163 0)
(-0.598838 -0.1456 0)
(-0.570062 -0.151418 -1.10614e-15)
(-0.521 -0.151658 1.12641e-15)
(-0.452848 -0.159783 1.20889e-15)
(-0.389595 -0.190877 -1.30066e-15)
(-0.317888 -0.242587 0)
(-0.230265 -0.290716 0)
(-0.132983 -0.302166 0)
(-0.0382842 -0.26141 0)
(0.0456998 -0.19275 0)
(0.116471 -0.113942 -4.76303e-15)
(0.171601 -0.0297329 5.27759e-15)
(0.199162 0.0538142 0)
(0.193842 0.131809 -4.96786e-15)
(0.107821 0.171882 1.03145e-14)
(0.00253417 0.27659 0)
(-0.0407064 0.356652 0)
(-0.0886769 0.318692 0)
(-0.150939 0.262408 0)
(-0.241482 0.211435 0)
(-0.330948 0.178771 0)
(-0.382164 0.151981 2.64605e-15)
(-0.349201 0.143871 -2.15921e-15)
(-0.36351 0.133408 0)
(-0.418582 0.0905836 0)
(-0.393122 -0.0542593 0)
(-0.359718 -0.158323 0)
(-0.33555 -0.207463 0)
(-0.322615 -0.233552 1.51537e-15)
(-0.290469 -0.295131 -4.21412e-15)
(-0.241977 -0.377099 2.85337e-15)
(-0.171908 -0.447027 0)
(-0.0885303 -0.440737 0)
(-0.0041057 -0.370219 0)
(0.0774039 -0.265121 0)
(0.145999 -0.141094 0)
(0.196645 -0.00461837 0)
(0.214886 0.122274 4.52536e-15)
(0.211295 0.235151 -4.17816e-15)
(0.121355 0.278242 4.13841e-15)
(0.0302377 0.262932 0)
(0.064136 0.349762 0)
(0.119754 0.334186 -4.15893e-16)
(0.194939 0.297826 3.67945e-16)
(0.29628 0.260268 0)
(0.450013 0.20987 -4.44286e-16)
(0.601886 0.147666 3.87757e-16)
(0.686147 0.127432 0)
(0.703122 0.155238 7.46317e-16)
(0.635505 0.206311 -7.46529e-16)
(0.496408 0.244569 8.02407e-16)
(0.322168 0.240495 -2.00495e-15)
(0.0953056 0.141286 1.72288e-15)
(-0.117641 -0.0928767 0)
(-0.162304 -0.284031 0)
(-0.161755 -0.468793 0)
(-0.117865 -0.577323 2.82077e-15)
(-0.0524786 -0.541802 -2.60752e-19)
(0.0233583 -0.44069 -2.63988e-15)
(0.105634 -0.290639 0)
(0.174676 -0.118337 0)
(0.218855 0.0637091 5.10888e-15)
(0.227626 0.215567 -4.22165e-15)
(0.220099 0.337813 -3.76283e-15)
(0.132503 0.370789 7.35293e-15)
(0.0284289 0.208283 0)
(0.105479 0.290888 0)
(0.299522 0.245247 -3.0101e-16)
(0.563644 0.119603 2.00796e-16)
(0.818621 -0.00937831 0)
(1.01743 -0.0773034 -2.5879e-16)
(1.10754 -0.0557089 2.51244e-16)
(1.10746 0.0388962 0)
(1.07649 0.173563 5.44649e-16)
(0.982495 0.3133 -5.43023e-16)
(0.831814 0.424848 5.69501e-16)
(0.651718 0.482277 -1.27968e-15)
(0.435093 0.446837 8.14812e-16)
(0.167353 0.242327 0)
(-0.025427 -0.140598 6.87014e-15)
(-0.11035 -0.527552 -3.10216e-15)
(-0.0959835 -0.650083 2.42363e-15)
(-0.0458366 -0.594245 -6.39217e-19)
(0.0212713 -0.465281 -2.3237e-15)
(0.109236 -0.263074 0)
(0.187374 -0.0351443 4.43747e-15)
(0.223013 0.169551 -2.45641e-19)
(0.222316 0.324259 -4.23617e-15)
(0.210164 0.432075 -3.75186e-15)
(0.13079 0.418734 3.63717e-15)
(0.0472053 0.171191 0)
(0.28531 0.0144751 0)
(0.613708 -0.21903 -1.71499e-16)
(0.891375 -0.359622 1.27716e-16)
(1.06679 -0.358811 0)
(1.17886 -0.270768 -2.26786e-16)
(1.17875 -0.116827 2.49497e-16)
(1.13766 0.075358 0)
(1.05833 0.284169 5.35494e-16)
(0.94655 0.481187 -5.2808e-16)
(0.794726 0.630517 5.47037e-16)
(0.628765 0.705625 -1.20033e-15)
(0.453803 0.678236 7.17542e-16)
(0.245014 0.484328 0)
(0.052878 -0.0209178 -7.96457e-15)
(-0.127192 -0.574658 2.72864e-15)
(-0.134673 -0.664831 2.14179e-15)
(-0.0943781 -0.600881 -1.12479e-18)
(-0.0384728 -0.445946 -2.40866e-15)
(0.0741724 -0.179482 0)
(0.181225 0.110545 -7.9257e-15)
(0.20255 0.299023 1.25739e-14)
(0.192214 0.417137 -4.39185e-15)
(0.185884 0.488281 -3.41683e-15)
(0.110837 0.403363 3.64683e-15)
(0.140656 -0.152623 0)
(0.44957 -0.498915 0)
(0.699576 -0.633755 -1.31121e-16)
(0.852341 -0.596449 1.2021e-16)
(0.914375 -0.475635 0)
(0.91643 -0.286111 -2.82611e-16)
(0.881229 -0.0593649 3.56136e-16)
(0.824324 0.182113 0)
(0.750424 0.426527 6.59031e-16)
(0.648326 0.649429 -6.25069e-16)
(0.525941 0.812277 6.31457e-16)
(0.395325 0.879814 -1.36404e-15)
(0.269347 0.823696 8.08559e-16)
(0.134186 0.587184 0)
(0.00694192 -0.0625523 0)
(-0.225385 -0.577705 0)
(-0.233851 -0.63877 2.37777e-15)
(-0.223191 -0.577442 -1.67819e-18)
(-0.171212 -0.403491 -2.81398e-15)
(-0.00591164 -0.0833211 0)
(0.151653 0.247839 0)
(0.158917 0.362444 4.99402e-15)
(0.143727 0.443301 -3.55398e-15)
(0.144489 0.464417 -3.18242e-15)
(0.0803718 0.327076 4.06797e-15)
(0.16264 -0.585448 0)
(0.381882 -0.821948 0)
(0.517598 -0.795955 -1.36582e-16)
(0.577701 -0.671331 1.43787e-16)
(0.583341 -0.482443 0)
(0.556723 -0.265997 -4.55159e-16)
(0.497447 -0.026551 6.60952e-16)
(0.420662 0.253646 0)
(0.344513 0.543788 9.54209e-16)
(0.246941 0.793269 -8.48593e-16)
(0.139754 0.959196 7.24587e-16)
(0.044955 1.00587 -1.25398e-15)
(-0.0345693 0.88527 6.37219e-16)
(-0.114379 0.471673 0)
(-0.228381 -0.390111 0)
(-0.402485 -0.515014 0)
(-0.425044 -0.537148 2.00324e-15)
(-0.442098 -0.529823 -1.34702e-18)
(-0.373654 -0.397839 -1.96074e-15)
(-0.186265 -0.122691 0)
(0.0160365 0.18741 0)
(0.0796135 0.327776 4.33452e-15)
(0.091307 0.394016 -3.53905e-15)
(0.106584 0.405369 -3.39151e-15)
(0.0574507 0.214947 9.89513e-15)
(0.102019 -0.855238 0)
(0.209952 -0.949281 0)
(0.259085 -0.846804 0)
(0.265092 -0.662165 0)
(0.234397 -0.433863 5.84334e-16)
(0.20296 -0.177491 -1.37295e-15)
(0.173473 0.0858497 1.36639e-15)
(0.0146413 0.401006 -5.94526e-16)
(-0.112937 0.707515 7.10913e-16)
(-0.21812 0.950816 1.07346e-18)
(-0.294938 1.06787 9.99765e-19)
(-0.340372 1.05431 -4.45165e-16)
(-0.368678 0.78338 -5.04441e-16)
(-0.41463 0.183424 1.56238e-15)
(-0.534052 -0.290447 -4.31337e-15)
(-0.641655 -0.366595 1.8459e-15)
(-0.694301 -0.477709 0)
(-0.715882 -0.528771 1.34877e-15)
(-0.640548 -0.46303 -1.39994e-15)
(-0.451548 -0.276931 1.74502e-15)
(-0.194394 -0.0141493 5.93182e-19)
(-0.00306612 0.215262 8.0128e-19)
(0.0687227 0.316642 -4.16723e-15)
(0.102082 0.328373 0)
(0.0673069 0.146761 -5.76737e-15)
(0.0329526 -0.981868 0)
(0.0353693 -0.984767 0)
(0.00400714 -0.789654 0)
(-0.0416924 -0.567107 0)
(-0.103012 -0.301408 -7.02382e-16)
(-0.174459 -0.00269796 8.03348e-16)
(-0.302847 0.296565 -4.44663e-16)
(-0.458504 0.60644 2.89987e-16)
(-0.573401 0.881688 0)
(-0.644596 1.05761 -3.78057e-16)
(-0.676073 1.09497 -7.24719e-19)
(-0.673777 0.98619 3.72403e-16)
(-0.66701 0.566753 0)
(-0.717457 0.0632431 -6.83903e-16)
(-0.823334 -0.137149 2.62896e-15)
(-0.905151 -0.282449 -1.37315e-15)
(-0.966476 -0.454391 1.15352e-15)
(-0.983245 -0.545898 -1.05306e-15)
(-0.912071 -0.558757 0)
(-0.738585 -0.467026 -1.20508e-15)
(-0.467558 -0.273761 3.30789e-15)
(-0.136768 -0.00180317 -6.37025e-15)
(0.0902332 0.228354 5.79496e-15)
(0.138947 0.290036 0)
(0.103965 0.18625 -4.98732e-15)
(-0.0287407 -0.992298 0)
(-0.119708 -0.860622 0)
(-0.225609 -0.649599 0)
(-0.340324 -0.391215 0)
(-0.471554 -0.0900099 4.90052e-16)
(-0.603919 0.220637 -3.73156e-16)
(-0.739909 0.522126 2.5579e-16)
(-0.859385 0.80304 -1.98237e-16)
(-0.932602 1.01682 3.38461e-16)
(-0.959977 1.09528 5.05282e-19)
(-0.949961 1.07424 -3.14906e-16)
(-0.915798 0.837299 0)
(-0.907362 0.42841 -4.2969e-16)
(-0.972068 0.131651 1.12402e-15)
(-1.04891 -0.0329554 -1.94644e-15)
(-1.10437 -0.240879 1.12608e-15)
(-1.14804 -0.429422 0)
(-1.16011 -0.564838 9.03525e-16)
(-1.10937 -0.64323 -8.82341e-16)
(-0.976173 -0.638262 9.35575e-16)
(-0.750391 -0.520837 3.47737e-19)
(-0.423979 -0.268542 -1.63249e-15)
(-0.00592812 0.0975396 0)
(0.202197 0.283292 0)
(0.143196 0.264574 0)
(-0.07383 -0.880592 0)
(-0.244091 -0.688492 0)
(-0.406176 -0.445003 1.92409e-16)
(-0.573808 -0.173673 -2.02505e-16)
(-0.743641 0.123257 0)
(-0.893676 0.421961 2.51758e-16)
(-1.02196 0.703276 -3.87997e-16)
(-1.11127 0.935294 1.63097e-16)
(-1.14998 1.07114 0)
(-1.14454 1.09163 0)
(-1.10764 0.9797 0)
(-1.06697 0.703533 3.39362e-16)
(-1.07347 0.40638 -4.08117e-16)
(-1.12353 0.196877 -4.85551e-16)
(-1.15437 -0.0119257 -5.61564e-16)
(-1.18267 -0.230686 1.02516e-15)
(-1.20722 -0.414331 9.19577e-16)
(-1.21801 -0.568267 -8.49994e-16)
(-1.18056 -0.688594 0)
(-1.09675 -0.754017 0)
(-0.953481 -0.726327 8.91159e-16)
(-0.723043 -0.554838 -1.10326e-15)
(-0.351706 -0.196734 0)
(0.149867 0.259471 4.89875e-15)
(0.152679 0.299218 -8.53485e-15)
(-0.0974691 -0.63485 0)
(-0.321867 -0.454516 0)
(-0.525384 -0.20685 -2.11773e-16)
(-0.720532 0.0575418 1.89203e-16)
(-0.899546 0.334692 2.71146e-16)
(-1.05016 0.605793 -4.06691e-16)
(-1.16525 0.844369 3.34514e-16)
(-1.22847 1.01366 -1.48081e-16)
(-1.24648 1.07052 0)
(-1.22167 1.03826 2.81709e-16)
(-1.17871 0.871369 -3.00293e-16)
(-1.15311 0.625163 -3.39572e-16)
(-1.16387 0.388199 5.94525e-20)
(-1.17821 0.166176 9.29242e-16)
(-1.17759 -0.0593003 -1.63172e-15)
(-1.18803 -0.253869 9.90874e-16)
(-1.19222 -0.425931 0)
(-1.18143 -0.579501 0)
(-1.14931 -0.713198 0)
(-1.09601 -0.819273 7.87447e-16)
(-1.02854 -0.865363 -8.08109e-16)
(-0.924246 -0.791977 0)
(-0.677721 -0.534496 0)
(-0.237531 -0.059374 -2.70942e-15)
(0.128108 0.271078 3.62001e-19)
(-0.106204 -0.372938 0)
(-0.359578 -0.200111 0)
(-0.584566 0.0380405 2.237e-16)
(-0.785615 0.285944 -1.5637e-16)
(-0.960518 0.537773 -2.24698e-16)
(-1.09976 0.768899 3.58954e-16)
(-1.19436 0.95025 -3.09389e-16)
(-1.23314 1.05045 1.42373e-16)
(-1.2398 1.05732 0)
(-1.22586 0.970369 -2.84162e-16)
(-1.19051 0.787062 3.07628e-16)
(-1.17385 0.559038 3.48207e-16)
(-1.16587 0.322306 -4.07345e-16)
(-1.16125 0.0878656 -4.92038e-16)
(-1.15996 -0.117371 -5.44436e-16)
(-1.16029 -0.296921 9.87029e-16)
(-1.15252 -0.467171 9.10264e-16)
(-1.13276 -0.62104 -8.53801e-16)
(-1.09575 -0.760422 0)
(-1.04719 -0.88367 -7.92804e-16)
(-1.00944 -0.968805 1.58712e-15)
(-0.995927 -0.967387 -8.42813e-16)
(-0.862336 -0.81425 0)
(-0.485727 -0.409737 1.64676e-15)
(0.0267893 0.164838 -5.52245e-15)
(-0.118854 -0.118759 2.60344e-16)
(-0.374118 0.0563927 1.5429e-16)
(-0.594727 0.276456 -1.91601e-16)
(-0.788556 0.505808 2.59936e-16)
(-0.952892 0.726157 -2.23804e-19)
(-1.0787 0.910275 -1.66907e-16)
(-1.15881 1.03217 1.48919e-16)
(-1.19582 1.07574 1.40758e-16)
(-1.20349 1.04922 -2.79875e-16)
(-1.189 0.910267 2.92803e-16)
(-1.16417 0.712223 -3.21676e-16)
(-1.14782 0.478394 0)
(-1.13723 0.239436 -4.3876e-16)
(-1.13888 0.0255284 1.07179e-15)
(-1.14179 -0.164046 -5.36932e-16)
(-1.13515 -0.352454 9.70319e-16)
(-1.12157 -0.531263 -8.95274e-16)
(-1.09679 -0.692436 0)
(-1.05654 -0.83679 0)
(-1.00828 -0.963769 7.9391e-16)
(-0.977144 -1.05886 3.09472e-19)
(-0.974344 -1.08653 -8.27889e-16)
(-0.934747 -1.00491 0)
(-0.607767 -0.723269 0)
(-0.186998 -0.209009 -4.44115e-15)
(-0.120481 0.122 0)
(-0.359297 0.301899 0)
(-0.563946 0.507461 0)
(-0.746314 0.714182 0)
(-0.898325 0.898697 0)
(-1.01188 1.03572 0)
(-1.08432 1.1078 0)
(-1.12224 1.10619 0)
(-1.13261 1.02505 2.87403e-16)
(-1.12125 0.854737 -3.07531e-16)
(-1.10346 0.639917 0)
(-1.09108 0.407038 0)
(-1.09319 0.192424 0)
(-1.10039 -0.00265385 0)
(-1.09406 -0.205867 0)
(-1.08274 -0.412456 0)
(-1.06611 -0.605253 -8.87529e-16)
(-1.03792 -0.777277 1.67896e-15)
(-0.996309 -0.923265 -1.62212e-15)
(-0.947035 -1.04281 7.9626e-16)
(-0.916976 -1.12893 7.9682e-16)
(-0.931238 -1.15173 -8.24985e-16)
(-0.91902 -1.09458 -9.01278e-16)
(-0.609776 -0.875366 1.15029e-15)
(-0.223399 -0.387558 -2.79815e-15)
(-0.105813 0.356877 0)
(-0.320398 0.541406 0)
(-0.509543 0.728833 1.35071e-16)
(-0.679095 0.908248 -1.0481e-16)
(-0.818121 1.05496 0)
(-0.921193 1.14763 1.55887e-16)
(-0.988968 1.17343 -2.93198e-16)
(-1.02605 1.13054 1.44736e-16)
(-1.03572 0.996866 3.00378e-16)
(-1.02554 0.802477 -3.29364e-16)
(-1.01298 0.582372 -3.75667e-16)
(-1.01219 0.371284 8.8221e-16)
(-1.0215 0.176377 -5.23473e-16)
(-1.01944 -0.0328597 -6.22272e-16)
(-1.00763 -0.259779 -5.4572e-16)
(-0.996963 -0.480765 9.77597e-16)
(-0.978748 -0.688225 0)
(-0.948115 -0.870062 8.52038e-16)
(-0.903389 -1.0138 -8.25887e-16)
(-0.849311 -1.11751 0)
(-0.81233 -1.18188 8.21387e-16)
(-0.832497 -1.18631 -1.6923e-15)
(-0.812699 -1.11467 9.02155e-16)
(-0.566318 -0.936398 1.07669e-15)
(-0.225122 -0.435115 -4.21911e-15)
(-0.0898319 0.602384 1.14587e-16)
(-0.275798 0.7697 7.97847e-17)
(-0.447382 0.933367 -1.20479e-16)
(-0.601246 1.08346 1.94961e-16)
(-0.72567 1.19433 -3.36906e-16)
(-0.818651 1.24631 1.53962e-16)
(-0.880468 1.22846 0)
(-0.912377 1.13454 2.99109e-16)
(-0.916765 0.965238 -3.20204e-16)
(-0.907186 0.755149 -3.58895e-16)
(-0.903534 0.544913 4.16629e-16)
(-0.912623 0.351799 0)
(-0.917173 0.14681 5.89375e-16)
(-0.905946 -0.0862947 -6.65187e-16)
(-0.896721 -0.323544 1.14714e-15)
(-0.887446 -0.555917 6.78027e-19)
(-0.868548 -0.776948 -1.86098e-15)
(-0.835691 -0.968093 8.7666e-16)
(-0.787179 -1.1104 -8.54581e-16)
(-0.726799 -1.19784 -1.15047e-18)
(-0.675905 -1.23808 1.73707e-15)
(-0.679761 -1.21774 -8.99505e-16)
(-0.663731 -1.12296 0)
(-0.481303 -0.985776 0)
(-0.252075 -0.553601 0)
(-0.0773607 0.830794 0)
(-0.233949 0.971697 0)
(-0.38504 1.11342 0)
(-0.519134 1.23842 0)
(-0.627487 1.31819 0)
(-0.7087 1.33367 0)
(-0.760783 1.27449 -1.50975e-16)
(-0.783251 1.13576 1.57426e-16)
(-0.781552 0.936359 3.4592e-16)
(-0.775073 0.71897 -3.98193e-16)
(-0.782256 0.521001 -4.65285e-16)
(-0.794838 0.326906 5.52846e-16)
(-0.790072 0.100501 0)
(-0.776802 -0.142667 -7.23306e-16)
(-0.768982 -0.385125 6.14872e-16)
(-0.758166 -0.628953 0)
(-0.737347 -0.863222 0)
(-0.701908 -1.06418 9.13335e-16)
(-0.650906 -1.2065 -1.78246e-15)
(-0.589334 -1.2803 9.01629e-16)
(-0.531419 -1.29947 9.3218e-16)
(-0.51002 -1.26126 -1.97376e-15)
(-0.474167 -1.16109 1.04098e-15)
(-0.353397 -1.06647 0)
(-0.257889 -0.790551 -1.62597e-15)
(-0.0647862 1.00338 0)
(-0.193842 1.13807 0)
(-0.322646 1.26439 1.02699e-16)
(-0.434984 1.36807 -8.86504e-17)
(-0.524987 1.41825 0)
(-0.591303 1.39629 1.54434e-16)
(-0.631464 1.29285 -3.12781e-16)
(-0.645031 1.11382 1.67731e-16)
(-0.641863 0.891598 3.79314e-16)
(-0.643614 0.677802 -4.44577e-16)
(-0.659292 0.491351 0)
(-0.669274 0.290342 6.42679e-16)
(-0.658022 0.0505355 -8.90754e-16)
(-0.645145 -0.195693 -7.92867e-16)
(-0.631549 -0.446044 -6.66474e-16)
(-0.614837 -0.701195 1.15235e-15)
(-0.588737 -0.949807 0)
(-0.547916 -1.16158 9.61382e-16)
(-0.494126 -1.30207 -9.42761e-16)
(-0.43396 -1.36078 0)
(-0.380287 -1.35455 0)
(-0.347911 -1.29453 0)
(-0.297897 -1.18554 0)
(-0.233415 -1.12819 1.11141e-15)
(-0.234121 -0.95672 -3.25664e-15)
(-0.0480563 1.10984 0)
(-0.148671 1.26483 0)
(-0.253807 1.3832 0)
(-0.343212 1.4734 0)
(-0.414492 1.50277 0)
(-0.466952 1.45428 0)
(-0.496504 1.32157 0)
(-0.503721 1.11736 0)
(-0.500843 0.885677 0)
(-0.50817 0.680848 0)
(-0.529639 0.49849 0)
(-0.542169 0.281076 0)
(-0.531518 0.0218344 0)
(-0.514484 -0.238545 0)
(-0.489214 -0.498626 0)
(-0.465494 -0.764159 0)
(-0.432235 -1.03104 0)
(-0.383408 -1.25901 0)
(-0.324437 -1.40031 0)
(-0.26478 -1.44532 0)
(-0.213911 -1.41201 0)
(-0.173382 -1.32063 0)
(-0.132399 -1.18241 0)
(-0.114537 -1.0542 0)
(-0.195979 -0.927954 0)
(-0.0276338 1.17597 0)
(-0.101438 1.3562 0)
(-0.18199 1.4711 0)
(-0.248769 1.55224 0)
(-0.300529 1.56536 0)
(-0.338153 1.49694 0)
(-0.357587 1.34489 0)
(-0.360249 1.12601 0)
(-0.358142 0.892022 0)
(-0.36777 0.697091 0)
(-0.391453 0.521684 0)
(-0.408532 0.306469 0)
(-0.398108 0.0474719 0)
(-0.37094 -0.228692 0)
(-0.335935 -0.486874 0)
(-0.314032 -0.747978 0)
(-0.283092 -1.03176 0)
(-0.23284 -1.28869 0)
(-0.170902 -1.44827 0)
(-0.108292 -1.49576 0)
(-0.0508193 -1.45679 0)
(0.00027369 -1.35668 0)
(0.0468294 -1.21231 0)
(0.0931601 -1.04035 0)
(0.179086 -0.87721 0)
(-0.0074716 1.21174 0)
(-0.0540937 1.41826 0)
(-0.108906 1.53133 0)
(-0.152721 1.60314 0)
(-0.184864 1.60701 0)
(-0.206137 1.52706 0)
(-0.214064 1.36182 0)
(-0.213502 1.13414 0)
(-0.211235 0.89817 0)
(-0.21798 0.704727 0)
(-0.240146 0.523279 0)
(-0.26514 0.301747 0)
(-0.250041 0.0467825 0)
(-0.201368 -0.249588 0)
(-0.159925 -0.507353 0)
(-0.147088 -0.757805 0)
(-0.124059 -1.05422 0)
(-0.0750687 -1.33916 0)
(-0.0115309 -1.51382 0)
(0.0516839 -1.55995 0)
(0.109343 -1.51173 0)
(0.161818 -1.40253 0)
(0.213499 -1.25686 0)
(0.267763 -1.08823 0)
(0.33303 -0.879217 0)
(0.0110253 1.21913 0)
(-0.00759492 1.45362 0)
(-0.0361767 1.56731 0)
(-0.0567673 1.64362 0)
(-0.0675138 1.63369 0)
(-0.0707119 1.54313 0)
(-0.0670081 1.3716 0)
(-0.0629581 1.13922 0)
(-0.059593 0.897351 0)
(-0.0627492 0.696976 0)
(-0.0790086 0.51358 0)
(-0.0896191 0.305239 0)
(-0.0659726 0.13355 0)
(-0.0113578 -0.252679 0)
(0.0282175 -0.517714 0)
(0.024547 -0.75758 0)
(0.0333513 -1.0645 0)
(0.0766216 -1.37509 0)
(0.138322 -1.5668 0)
(0.201425 -1.61631 0)
(0.261396 -1.56355 0)
(0.318833 -1.44918 0)
(0.37468 -1.2983 0)
(0.434853 -1.12918 0)
(0.508559 -0.960437 0)
(0.0290562 1.19651 0)
(0.0372686 1.4634 0)
(0.0339821 1.57818 0)
(0.0386603 1.63911 0)
(0.0506035 1.63081 0)
(0.0649078 1.54349 0)
(0.081827 1.373 0)
(0.0923386 1.14305 0)
(0.0966337 0.89457 0)
(0.094098 0.674642 0)
(0.0744778 0.469853 0)
(0.0624616 0.258329 0)
(0.0975778 0.00823861 0)
(0.174552 -0.292265 0)
(0.207002 -0.529507 0)
(0.188849 -0.754549 0)
(0.180575 -1.06777 0)
(0.214995 -1.40534 0)
(0.275071 -1.61777 0)
(0.340659 -1.67436 0)
(0.406129 -1.62208 0)
(0.471032 -1.50729 0)
(0.537902 -1.35895 0)
(0.610281 -1.19512 0)
(0.693463 -1.02726 0)
(0.048717 1.14279 0)
(0.0812056 1.44779 0)
(0.103288 1.56592 0)
(0.13036 1.62276 0)
(0.162637 1.61002 0)
(0.195942 1.52552 0)
(0.228353 1.36223 0)
(0.251201 1.14254 0)
(0.262831 0.895912 0)
(0.265425 0.657214 0)
(0.252306 0.426066 0)
(0.246278 0.198016 0)
(0.302773 -0.05704 0)
(0.372646 -0.316337 0)
(0.383571 -0.5237 0)
(0.344164 -0.732131 0)
(0.315562 -1.05494 0)
(0.342747 -1.42717 0)
(0.406086 -1.66784 0)
(0.479903 -1.7375 0)
(0.556001 -1.6902 0)
(0.633326 -1.57862 0)
(0.713599 -1.43539 0)
(0.802128 -1.28168 0)
(0.904371 -1.13084 0)
(0.0647915 1.05746 0)
(0.12399 1.40859 0)
(0.16916 1.53108 0)
(0.216505 1.58297 0)
(0.267428 1.57175 0)
(0.318461 1.48789 0)
(0.367116 1.33431 0)
(0.405447 1.12784 0)
(0.4313 0.890879 0)
(0.448714 0.647191 0)
(0.454902 0.401125 0)
(0.470218 0.161309 0)
(0.520904 -0.0844761 0)
(0.560904 -0.315442 0)
(0.548766 -0.496906 0)
(0.488158 -0.687976 0)
(0.442519 -1.02744 0)
(0.471631 -1.44754 0)
(0.546794 -1.72555 0)
(0.634187 -1.81277 0)
(0.723707 -1.77289 0)
(0.814667 -1.6671 0)
(0.911882 -1.53255 0)
(1.02038 -1.39143 0)
(1.14524 -1.25687 0)
(0.0831988 0.938822 0)
(0.166025 1.34599 0)
(0.231511 1.47711 0)
(0.294827 1.52527 0)
(0.361642 1.51317 0)
(0.42889 1.4334 0)
(0.491255 1.28934 0)
(0.543496 1.09545 0)
(0.584021 0.869796 0)
(0.615621 0.629701 0)
(0.638743 0.383719 0)
(0.666676 0.142797 0)
(0.703723 -0.0925152 0)
(0.722937 -0.299989 0)
(0.697946 -0.455465 0)
(0.621993 -0.626331 0)
(0.572015 -0.99481 0)
(0.616547 -1.47733 0)
(0.709273 -1.7973 0)
(0.810041 -1.90193 0)
(0.910321 -1.8697 0)
(1.01331 -1.77108 0)
(1.12477 -1.64725 0)
(1.25046 -1.52132 0)
(1.39408 -1.40587 0)
(0.102337 0.784462 0)
(0.207848 1.26235 0)
(0.289242 1.40713 0)
(0.365325 1.45453 0)
(0.444087 1.4412 0)
(0.522601 1.36564 0)
(0.595583 1.23055 0)
(0.658051 1.04847 0)
(0.70908 0.834177 0)
(0.750302 0.602319 0)
(0.780297 0.363388 0)
(0.812769 0.128115 0)
(0.843186 -0.094811 0)
(0.85574 -0.282095 0)
(0.829729 -0.4093 0)
(0.749592 -0.559408 0)
(0.713479 -0.973936 0)
(0.782695 -1.52599 0)
(0.890864 -1.88333 0)
(0.998599 -2.00085 0)
(1.10344 -1.97525 0)
(1.21213 -1.88438 0)
(1.33145 -1.77213 0)
(1.4641 -1.66112 0)
(1.61116 -1.56199 0)
(0.120009 0.587989 0)
(0.249622 1.16009 0)
(0.344754 1.32412 0)
(0.428112 1.37437 0)
(0.513309 1.3606 0)
(0.598721 1.28833 0)
(0.677848 1.16158 0)
(0.74642 0.990482 0)
(0.803726 0.787972 0)
(0.847805 0.566725 0)
(0.882295 0.337492 0)
(0.917873 0.108873 0)
(0.943855 -0.101902 0)
(0.961209 -0.271132 0)
(0.943598 -0.369131 0)
(0.87276 -0.504688 0)
(0.865614 -0.98109 0)
(0.960657 -1.59665 0)
(1.07692 -1.97847 0)
(1.18308 -2.10204 0)
(1.28476 -2.08053 0)
(1.39096 -1.99716 0)
(1.50531 -1.89543 0)
(1.62966 -1.79563 0)
(1.7625 -1.70592 0)
(0.128392 0.354193 0)
(0.286946 1.02725 0)
(0.396525 1.231 0)
(0.484289 1.28842 0)
(0.57121 1.27525 0)
(0.658026 1.20605 0)
(0.739387 1.08705 0)
(0.810734 0.926075 0)
(0.869158 0.735055 0)
(0.916466 0.525437 0)
(0.955023 0.304952 0)
(0.98928 0.0837558 0)
(1.01359 -0.114036 0)
(1.04214 -0.270537 0)
(1.03794 -0.352188 0)
(0.987332 -0.478739 0)
(1.01875 -1.0263 0)
(1.13698 -1.68782 0)
(1.25409 -2.07625 0)
(1.35136 -2.19734 0)
(1.44168 -2.17691 0)
(1.53403 -2.09936 0)
(1.63205 -2.00509 0)
(1.73577 -1.91139 0)
(1.84348 -1.82488 0)
(0.11432 0.107388 0)
(0.309818 0.857056 0)
(0.44184 1.12761 0)
(0.533279 1.19909 0)
(0.61775 1.18746 0)
(0.702652 1.12205 0)
(0.782371 1.011 0)
(0.852958 0.860854 0)
(0.91073 0.681295 0)
(0.958378 0.481343 0)
(0.998104 0.269708 0)
(1.03072 0.0619265 0)
(1.05552 -0.129701 0)
(1.0986 -0.287338 0)
(1.10955 -0.369316 0)
(1.08817 -0.494663 0)
(1.16642 -1.11246 0)
(1.30562 -1.79567 0)
(1.4178 -2.17006 0)
(1.49966 -2.27913 0)
(1.57084 -2.25725 0)
(1.64237 -2.18319 0)
(1.71781 -2.09338 0)
(1.79879 -2.00371 0)
(1.88544 -1.92072 0)
(0.0646224 -0.115753 0)
(0.299722 0.644066 0)
(0.46846 1.00893 0)
(0.574528 1.1084 0)
(0.657155 1.10064 0)
(0.734807 1.03818 0)
(0.808146 0.934278 0)
(0.873132 0.795295 0)
(0.926986 0.627279 0)
(0.973116 0.436319 0)
(1.01007 0.234811 0)
(1.03713 0.0356073 0)
(1.07068 -0.164369 0)
(1.13286 -0.334837 0)
(1.15785 -0.41979 0)
(1.1762 -0.560899 0)
(1.30971 -1.23788 0)
(1.4664 -1.91473 0)
(1.56765 -2.2526 0)
(1.62876 -2.34151 0)
(1.67737 -2.31612 0)
(1.72678 -2.24498 0)
(1.78264 -2.16068 0)
(1.84696 -2.07821 0)
(1.92127 -2.00386 0)
(-0.00217721 -0.231014 0)
(0.247776 0.40847 0)
(0.460056 0.855195 0)
(0.599692 1.00841 0)
(0.693296 1.01887 0)
(0.766272 0.962523 0)
(0.827054 0.864179 0)
(0.87874 0.732102 0)
(0.923166 0.57126 0)
(0.96227 0.386309 0)
(0.997265 0.190016 0)
(1.0273 -0.0132514 0)
(1.08322 -0.231522 0)
(1.15706 -0.408929 0)
(1.18554 -0.489083 0)
(1.25785 -0.679197 0)
(1.45181 -1.40004 0)
(1.61704 -2.03694 0)
(1.70025 -2.31735 0)
(1.73841 -2.38153 0)
(1.76566 -2.35342 0)
(1.79736 -2.28793 0)
(1.83903 -2.21343 0)
(1.89387 -2.1431 0)
(1.96262 -2.08169 0)
(-0.025638 -0.246063 0)
(0.168318 0.177907 0)
(0.405887 0.657314 0)
(0.589293 0.877125 0)
(0.716302 0.930055 0)
(0.800057 0.896087 0)
(0.856172 0.80955 0)
(0.896177 0.683636 0)
(0.927851 0.525954 0)
(0.957232 0.342419 0)
(0.986819 0.142069 0)
(1.02381 -0.0808319 0)
(1.09665 -0.316277 0)
(1.15589 -0.484005 0)
(1.18896 -0.551992 0)
(1.34229 -0.863139 0)
(1.59245 -1.59551 0)
(1.74996 -2.15201 0)
(1.80879 -2.36172 0)
(1.82513 -2.40036 0)
(1.83545 -2.37347 0)
(1.85454 -2.31817 0)
(1.88807 -2.25753 0)
(1.93691 -2.20208 0)
(2.00035 -2.15469 0)
(-0.0359505 -0.259522 0)
(0.0671908 -0.0598894 0)
(0.311968 0.425457 0)
(0.529276 0.700738 0)
(0.698071 0.80884 0)
(0.8126 0.818457 0)
(0.881768 0.761844 0)
(0.919817 0.653435 0)
(0.940682 0.5015 0)
(0.95626 0.315305 0)
(0.972534 0.100835 0)
(1.00746 -0.145133 0)
(1.0551 -0.388786 0)
(1.08619 -0.535962 0)
(1.17589 -0.64965 0)
(1.45138 -1.13435 0)
(1.72628 -1.80879 0)
(1.85403 -2.24641 0)
(1.88448 -2.38527 0)
(1.88352 -2.40149 0)
(1.88303 -2.38293 0)
(1.89519 -2.34024 0)
(1.9232 -2.29542 0)
(1.96756 -2.25549 0)
(2.0265 -2.22186 0)
(-0.0339263 -0.221094 0)
(-0.0150535 -0.222405 0)
(0.19975 0.196032 0)
(0.430039 0.493368 0)
(0.627379 0.647713 0)
(0.772451 0.710605 0)
(0.862671 0.702949 0)
(0.906425 0.630607 0)
(0.919315 0.496862 0)
(0.920127 0.313132 0)
(0.922095 0.0904452 0)
(0.910422 -0.165554 0)
(0.897088 -0.429223 0)
(0.968848 -0.619642 0)
(1.22732 -0.904077 0)
(1.58502 -1.46428 0)
(1.83049 -2.0032 0)
(1.90985 -2.30842 0)
(1.91704 -2.39165 0)
(1.90911 -2.3999 0)
(1.90552 -2.38633 0)
(1.91513 -2.35778 0)
(1.94143 -2.32923 0)
(1.98301 -2.30451 0)
(2.03785 -2.28415 0)
(0.00109349 -0.173116 0)
(0.0412131 -0.204867 0)
(0.129659 -0.0174806 0)
(0.336398 0.277696 0)
(0.531225 0.464753 0)
(0.683827 0.576046 0)
(0.783894 0.624414 0)
(0.834986 0.602776 0)
(0.840643 0.509116 0)
(0.82747 0.345001 0)
(0.805805 0.135918 0)
(0.686949 -0.116938 0)
(0.724369 -0.517349 0)
(0.987735 -0.8852 0)
(1.36991 -1.30077 0)
(1.70189 -1.77129 0)
(1.87983 -2.1441 0)
(1.91672 -2.33808 0)
(1.91631 -2.38775 0)
(1.90767 -2.395 0)
(1.90502 -2.38839 0)
(1.91644 -2.37465 0)
(1.9432 -2.36188 0)
(1.9842 -2.35145 0)
(2.03737 -2.34339 0)
(0.0270561 -0.152134 0)
(0.12941 -0.225059 0)
(0.225041 -0.164781 0)
(0.359859 0.0671526 0)
(0.498295 0.294197 0)
(0.606713 0.448883 0)
(0.6833 0.550611 0)
(0.717184 0.58863 0)
(0.704092 0.543358 0)
(0.69852 0.408437 0)
(0.602698 0.282435 0)
(0.483249 -0.0983411 0)
(0.747876 -0.80883 0)
(1.13966 -1.29447 0)
(1.49753 -1.66426 0)
(1.75293 -1.99511 0)
(1.87562 -2.23246 0)
(1.8948 -2.34799 0)
(1.89045 -2.3805 0)
(1.88315 -2.39075 0)
(1.88565 -2.39361 0)
(1.90211 -2.39481 0)
(1.93267 -2.39632 0)
(1.97482 -2.39832 0)
(2.02685 -2.40103 0)
(0.0506539 -0.215831 0)
(0.148663 -0.348995 0)
(0.232793 -0.321924 0)
(0.37065 -0.129282 0)
(0.495058 0.155699 0)
(0.560396 0.369126 0)
(0.595705 0.518728 0)
(0.593106 0.607072 0)
(0.574869 0.603844 0)
(0.549045 0.529076 0)
(0.339715 0.541837 0)
(0.472365 -0.36464 0)
(0.899502 -1.21621 0)
(1.2646 -1.66252 0)
(1.55132 -1.93962 0)
(1.74278 -2.15393 0)
(1.81669 -2.29036 0)
(1.83565 -2.35268 0)
(1.83619 -2.37809 0)
(1.83952 -2.39357 0)
(1.85303 -2.40769 0)
(1.87815 -2.42144 0)
(1.91326 -2.43429 0)
(1.95724 -2.44609 0)
(2.00912 -2.45754 0)
(0.045076 -0.308008 0)
(0.107243 -0.482152 0)
(0.147028 -0.474373 0)
(0.246781 -0.322237 0)
(0.411807 0.0288343 0)
(0.499993 0.327355 0)
(0.525339 0.522247 0)
(0.508989 0.651551 0)
(0.473867 0.702251 0)
(0.344346 0.715306 0)
(0.116139 0.732519 0)
(0.61676 -0.762616 0)
(1.03492 -1.60503 0)
(1.33758 -1.96146 0)
(1.55898 -2.14739 0)
(1.68617 -2.26497 0)
(1.74088 -2.3302 0)
(1.75998 -2.36372 0)
(1.77281 -2.38614 0)
(1.79087 -2.4088 0)
(1.81661 -2.43253 0)
(1.84944 -2.45519 0)
(1.88883 -2.47568 0)
(1.93373 -2.49438 0)
(1.98418 -2.51261 0)
(0.00827094 -0.40109 0)
(0.0383307 -0.594143 0)
(0.0626318 -0.597279 0)
(0.136596 -0.538459 0)
(0.301639 -0.154941 0)
(0.432775 0.257495 0)
(0.48161 0.517815 0)
(0.457404 0.708224 0)
(0.356951 0.852264 0)
(0.130522 0.971014 0)
(0.265864 0.323642 0)
(0.805704 -1.21247 0)
(1.1548 -1.93023 0)
(1.38364 -2.18936 0)
(1.5348 -2.29124 0)
(1.61791 -2.33833 0)
(1.65987 -2.36393 0)
(1.68798 -2.3847 0)
(1.71571 -2.4093 0)
(1.74698 -2.43787 0)
(1.78165 -2.46693 0)
(1.81942 -2.49399 0)
(1.86 -2.5187 0)
(1.9044 -2.54209 0)
(1.95334 -2.56558 0)
(-0.0415958 -0.46361 0)
(-0.036879 -0.640894 0)
(-0.0114234 -0.671492 0)
(0.0714162 -0.661236 0)
(0.226828 -0.422468 0)
(0.375156 0.142936 0)
(0.44169 0.503475 0)
(0.406101 0.774445 0)
(0.237238 0.98078 0)
(0.067522 1.06331 0)
(0.501609 -0.144108 0)
(0.987017 -1.58764 0)
(1.25132 -2.17175 0)
(1.40453 -2.34343 0)
(1.49737 -2.38435 0)
(1.55506 -2.39234 0)
(1.59653 -2.40083 0)
(1.63416 -2.41895 0)
(1.67223 -2.4455 0)
(1.7106 -2.47578 0)
(1.74877 -2.50585 0)
(1.78713 -2.5342 0)
(1.82732 -2.56124 0)
(1.87009 -2.58809 0)
(1.91643 -2.61603 0)
(-0.0965886 -0.485294 0)
(-0.116672 -0.65874 0)
(-0.0829918 -0.693196 0)
(0.00306346 -0.694386 0)
(0.144453 -0.692793 0)
(0.320357 0.011224 0)
(0.403395 0.47083 0)
(0.390382 0.781 0)
(0.234185 0.969874 0)
(0.150237 1.09725 0)
(0.759924 -0.621679 0)
(1.15013 -1.88548 0)
(1.32831 -2.32945 0)
(1.41804 -2.43581 0)
(1.4743 -2.44389 0)
(1.5177 -2.4379 0)
(1.55851 -2.44269 0)
(1.59956 -2.46055 0)
(1.63989 -2.48646 0)
(1.67838 -2.51531 0)
(1.7153 -2.54437 0)
(1.7522 -2.57308 0)
(1.79026 -2.60199 0)
(1.83105 -2.63198 0)
(1.87524 -2.6638 0)
(-0.13824 -0.463934 0)
(-0.196183 -0.618181 0)
(-0.159881 -0.672356 0)
(-0.0617573 -0.656701 0)
(0.0503794 -0.643746 0)
(0.268429 -0.0825642 0)
(0.396124 0.390989 0)
(0.418296 0.700641 0)
(0.234534 0.896642 0)
(0.455915 0.680267 0)
(1.01074 -1.03242 0)
(1.29431 -2.10592 0)
(1.39576 -2.42242 0)
(1.43879 -2.48679 0)
(1.47039 -2.48421 0)
(1.50296 -2.47765 0)
(1.53854 -2.48345 0)
(1.57535 -2.50077 0)
(1.61129 -2.52473 0)
(1.64572 -2.5517 0)
(1.67949 -2.58011 0)
(1.71377 -2.60969 0)
(1.75009 -2.64073 0)
(1.78868 -2.67359 0)
(1.82995 -2.70878 0)
(-0.1817 -0.402871 0)
(-0.27161 -0.565005 0)
(-0.249613 -0.640791 0)
(-0.149177 -0.646062 0)
(-0.0228007 -0.588624 0)
(0.219776 -0.231563 0)
(0.423381 0.243698 0)
(0.470508 0.54759 0)
(0.369914 0.789653 0)
(0.754371 0.114824 0)
(1.21632 -1.39237 0)
(1.40601 -2.24448 0)
(1.45249 -2.47093 0)
(1.46438 -2.51165 0)
(1.4772 -2.50993 0)
(1.49739 -2.50797 0)
(1.52311 -2.5163 0)
(1.55154 -2.53378 0)
(1.58081 -2.55704 0)
(1.6105 -2.58378 0)
(1.64105 -2.61292 0)
(1.67326 -2.64413 0)
(1.70718 -2.67734 0)
(1.74342 -2.71278 0)
(1.78208 -2.75071 0)
(-0.220395 -0.301621 0)
(-0.334876 -0.501177 0)
(-0.343317 -0.618455 0)
(-0.266714 -0.683232 0)
(-0.129812 -0.656593 0)
(0.0958087 -0.500541 0)
(0.425378 -0.0243831 0)
(0.538081 0.328993 0)
(0.573379 0.557545 0)
(0.986014 -0.362253 0)
(1.36123 -1.6705 0)
(1.47866 -2.32778 0)
(1.4888 -2.4874 0)